Great Red Owns Many ACres of Sand
11788
    1ETH     C1    1   0.018   0.007   0.011
    1ETH     C2    2   0.111   0.081   0.107
    1ETH     H1    3   0.074  -0.061  -0.054
    1ETH     H2    4  -0.035   0.078  -0.053
    1ETH     H3    5  -0.056  -0.051   0.065
    1ETH     H4    6   0.184   0.140   0.052
    1ETH     H5    7   0.166   0.012   0.171
    1ETH     H6    8   0.054   0.148   0.171
    2ETH     C1    9   0.017   0.008   1.008
    2ETH     C2   10   0.101   0.098   1.098
    2ETH     H1   11   0.080  -0.053   0.943
    2ETH     H2   12  -0.050   0.066   0.945
    2ETH     H3   13  -0.044  -0.061   1.067
    2ETH     H4   14   0.164   0.164   1.039
    2ETH     H5   15   0.165   0.039   1.164
    2ETH     H6   16   0.037   0.161   1.161
    3ETH     C1   17   0.000   0.025   2.006
    3ETH     C2   18   0.083   0.104   2.108
    3ETH     H1   19   0.064  -0.043   1.949
    3ETH     H2   20  -0.050   0.091   1.935
    3ETH     H3   21  -0.076  -0.034   2.056
    3ETH     H4   22   0.157   0.166   2.059
    3ETH     H5   23   0.136   0.038   2.177
    3ETH     H6   24   0.019   0.170   2.168
    4ETH     C1   25   0.022   0.009   3.005
    4ETH     C2   26   0.108   0.103   3.089
    4ETH     H1   27   0.084  -0.057   2.945
    4ETH     H2   28  -0.041   0.065   2.937
    4ETH     H3   29  -0.041  -0.054   3.068
    4ETH     H4   30   0.170   0.167   3.027
    4ETH     H5   31   0.174   0.047   3.155
    4ETH     H6   32   0.045   0.167   3.151
    5ETH     C1   33   4.993   0.038   4.002
    5ETH     C2   34   5.083   0.105   4.106
    5ETH     H1   35   5.052  -0.018   3.930
    5ETH     H2   36   4.933   0.111   3.948
    5ETH     H3   37   4.925  -0.032   4.051
    5ETH     H4   38   5.146   0.180   4.060
    5ETH     H5   39   5.148   0.032   4.153
    5ETH     H6   40   5.025   0.156   4.182
    6ETH     C1   41   0.013   1.005   0.033
    6ETH     C2   42   0.090   1.112   0.109
    6ETH     H1   43   0.081   0.931  -0.009
    6ETH     H2   44  -0.045   1.048  -0.048
    6ETH     H3   45  -0.057   0.952   0.098
    6ETH     H4   46   0.156   1.168   0.042
    6ETH     H5   47   0.152   1.066   0.186
    6ETH     H6   48   0.023   1.182   0.158
    7ETH     C1   49   0.017   0.996   0.998
    7ETH     C2   50   0.107   1.082   1.087
    7ETH     H1   51   0.076   0.931   0.933
    7ETH     H2   52  -0.045   1.058   0.934
    7ETH     H3   53  -0.048   0.933   1.058
    7ETH     H4   54   0.168   1.150   1.028
    7ETH     H5   55   0.173   1.020   1.148
    7ETH     H6   56   0.045   1.141   1.154
    8ETH     C1   57   4.999   0.995   2.014
    8ETH     C2   58   5.082   1.086   2.103
    8ETH     H1   59   5.063   0.927   1.958
    8ETH     H2   60   4.943   1.055   1.941
    8ETH     H3   61   4.929   0.937   2.072
    8ETH     H4   62   5.157   1.138   2.045
    8ETH     H5   63   5.133   1.029   2.181
    8ETH     H6   64   5.019   1.159   2.153
    9ETH     C1   65   0.013   1.003   3.019
    9ETH     C2   66   0.102   1.086   3.112
    9ETH     H1   67   0.074   0.941   2.953
    9ETH     H2   68  -0.050   1.066   2.957
    9ETH     H3   69  -0.052   0.937   3.076
    9ETH     H4   70   0.175   1.144   3.057
    9ETH     H5   71   0.156   1.022   3.182
    9ETH     H6   72   0.042   1.156   3.171
   10ETH     C1   73   0.004   0.997   4.014
   10ETH     C2   74   0.093   1.073   4.112
   10ETH     H1   75   0.062   0.938   3.944
   10ETH     H2   76  -0.055   1.069   3.958
   10ETH     H3   77  -0.065   0.931   4.067
   10ETH     H4   78   0.162   1.137   4.057
   10ETH     H5   79   0.150   1.004   4.173
   10ETH     H6   80   0.033   1.135   4.178
   11ETH     C1   81   0.021   2.022   4.996
   11ETH     C2   82   0.110   2.112   5.081
   11ETH     H1   83   0.080   1.963   4.926
   11ETH     H2   84  -0.051   2.080   4.938
   11ETH     H3   85  -0.036   1.952   5.058
   11ETH     H4   86   0.187   2.161   5.020
   11ETH     H5   87   0.160   2.055   5.160
   11ETH     H6   88   0.052   2.191   5.129
   12ETH     C1   89   0.023   2.018   1.001
   12ETH     C2   90   0.106   2.101   1.099
   12ETH     H1   91   0.084   1.945   0.948
   12ETH     H2   92  -0.026   2.081   0.928
   12ETH     H3   93  -0.054   1.964   1.056
   12ETH     H4   94   0.175   2.165   1.044
   12ETH     H5   95   0.165   2.037   1.165
   12ETH     H6   96   0.042   2.163   1.161
   13ETH     C1   97   0.003   2.038   2.016
   13ETH     C2   98   0.098   2.116   2.108
   13ETH     H1   99   0.059   1.977   1.946
   13ETH     H2  100  -0.060   2.105   1.958
   13ETH     H3  101  -0.061   1.973   2.074
   13ETH     H4  102   0.165   2.179   2.050
   13ETH     H5  103   0.159   2.048   2.167
   13ETH     H6  104   0.042   2.178   2.177
   14ETH     C1  105   0.009   2.024   3.013
   14ETH     C2  106   0.103   2.109   3.097
   14ETH     H1  107   0.067   1.955   2.953
   14ETH     H2  108  -0.050   2.086   2.946
   14ETH     H3  109  -0.060   1.966   3.075
   14ETH     H4  110   0.170   2.168   3.034
   14ETH     H5  111   0.164   2.045   3.161
   14ETH     H6  112   0.046   2.177   3.160
   15ETH     C1  113   0.002   2.019   4.024
   15ETH     C2  114   0.082   2.108   4.119
   15ETH     H1  115   0.067   1.961   3.959
   15ETH     H2  116  -0.065   2.078   3.961
   15ETH     H3  117  -0.059   1.949   4.081
   15ETH     H4  118   0.131   2.190   4.067
   15ETH     H5  119   0.159   2.050   4.170
   15ETH     H6  120   0.017   2.153   4.194
   16ETH     C1  121   4.981   3.015   0.001
   16ETH     C2  122   5.090   3.095   0.071
   16ETH     H1  123   5.023   2.953  -0.078
   16ETH     H2  124   4.908   3.082  -0.045
   16ETH     H3  125   4.929   2.950   0.071
   16ETH     H4  126   5.152   3.151   0.001
   16ETH     H5  127   5.156   3.030   0.128
   16ETH     H6  128   5.046   3.166   0.139
   17ETH     C1  129   0.006   3.008   1.013
   17ETH     C2  130   0.098   3.100   1.092
   17ETH     H1  131   0.060   2.942   0.945
   17ETH     H2  132  -0.061   3.066   0.951
   17ETH     H3  133  -0.053   2.945   1.079
   17ETH     H4  134   0.156   3.165   1.027
   17ETH     H5  135   0.168   3.044   1.153
   17ETH     H6  136   0.039   3.164   1.159
   18ETH     C1  137   0.016   3.016   2.021
   18ETH     C2  138   0.105   3.108   2.103
   18ETH     H1  139   0.076   2.948   1.960
   18ETH     H2  140  -0.049   3.073   1.954
   18ETH     H3  141  -0.047   2.956   2.086
   18ETH     H4  142   0.168   3.170   2.039
   18ETH     H5  143   0.170   3.050   2.169
   18ETH     H6  144   0.045   3.174   2.166
   19ETH     C1  145   0.002   3.022   3.014
   19ETH     C2  146   0.090   3.110   3.103
   19ETH     H1  147   0.063   2.964   2.947
   19ETH     H2  148  -0.066   3.083   2.954
   19ETH     H3  149  -0.058   2.953   3.074
   19ETH     H4  150   0.151   3.176   3.042
   19ETH     H5  151   0.159   3.050   3.164
   19ETH     H6  152   0.031   3.170   3.171
   20ETH     C1  153   0.003   3.008   3.998
   20ETH     C2  154   0.089   3.101   4.082
   20ETH     H1  155   0.065   2.942   3.937
   20ETH     H2  156  -0.062   3.065   3.932
   20ETH     H3  157  -0.060   2.945   4.062
   20ETH     H4  158   0.157   3.160   4.020
   20ETH     H5  159   0.149   3.043   4.152
   20ETH     H6  160   0.027   3.169   4.140
   21ETH     C1  161   0.006   4.011   0.012
   21ETH     C2  162   0.097   4.103   0.094
   21ETH     H1  163   0.063   3.944  -0.052
   21ETH     H2  164  -0.061   4.068  -0.052
   21ETH     H3  165  -0.056   3.949   0.077
   21ETH     H4  166   0.157   4.167   0.029
   21ETH     H5  167   0.168   4.045   0.153
   21ETH     H6  168   0.040   4.166   0.161
   22ETH     C1  169   0.014   4.013   1.005
   22ETH     C2  170   0.089   4.113   1.093
   22ETH     H1  171   0.082   3.951   0.948
   22ETH     H2  172  -0.051   4.066   0.935
   22ETH     H3  173  -0.048   3.948   1.066
   22ETH     H4  174   0.159   4.173   1.034
   22ETH     H5  175   0.146   4.061   1.169
   22ETH     H6  176   0.021   4.181   1.144
   23ETH     C1  177   4.986   4.012   2.022
   23ETH     C2  178   5.061   4.102   2.120
   23ETH     H1  179   5.055   3.952   1.962
   23ETH     H2  180   4.926   4.071   1.953
   23ETH     H3  181   4.920   3.942   2.074
   23ETH     H4  182   5.129   4.166   2.068
   23ETH     H5  183   5.118   4.044   2.192
   23ETH     H6  184   4.992   4.166   2.176
   24ETH     C1  185   0.005   4.005   3.003
   24ETH     C2  186   0.093   4.096   3.089
   24ETH     H1  187   0.065   3.942   2.938
   24ETH     H2  188  -0.061   4.065   2.941
   24ETH     H3  189  -0.057   3.940   3.065
   24ETH     H4  190   0.144   4.168   3.026
   24ETH     H5  191   0.168   4.038   3.143
   24ETH     H6  192   0.034   4.151   3.162
   25ETH     C1  193   0.014   3.983   4.023
   25ETH     C2  194   0.108   4.082   4.092
   25ETH     H1  195   0.070   3.911   3.964
   25ETH     H2  196  -0.056   4.035   3.957
   25ETH     H3  197  -0.046   3.928   4.096
   25ETH     H4  198   0.170   4.135   4.020
   25ETH     H5  199   0.173   4.031   4.163
   25ETH     H6  200   0.050   4.156   4.146
   26ETH     C1  201   1.017   0.021   0.005
   26ETH     C2  202   1.110   0.101   0.095
   26ETH     H1  203   1.073  -0.044  -0.063
   26ETH     H2  204   0.953   0.085  -0.055
   26ETH     H3  205   0.954  -0.042   0.066
   26ETH     H4  206   1.173   0.168   0.037
   26ETH     H5  207   1.174   0.035   0.154
   26ETH     H6  208   1.052   0.161   0.166
   27ETH     C1  209   1.014   0.001   1.039
   27ETH     C2  210   1.107   0.097   1.112
   27ETH     H1  211   1.069  -0.057   0.965
   27ETH     H2  212   0.935   0.056   0.988
   27ETH     H3  213   0.968  -0.068   1.108
   27ETH     H4  214   1.162   0.158   1.041
   27ETH     H5  215   1.179   0.043   1.173
   27ETH     H6  216   1.051   0.163   1.176
   28ETH     C1  217   1.020   4.998   2.013
   28ETH     C2  218   1.097   5.098   2.098
   28ETH     H1  219   1.086   4.954   1.938
   28ETH     H2  220   0.938   5.048   1.962
   28ETH     H3  221   0.979   4.919   2.075
   28ETH     H4  222   1.154   5.167   2.037
   28ETH     H5  223   1.165   5.046   2.167
   28ETH     H6  224   1.029   5.156   2.157
   29ETH     C1  225   1.004   0.007   2.996
   29ETH     C2  226   1.087   0.103   3.079
   29ETH     H1  227   1.067  -0.057   2.935
   29ETH     H2  228   0.936   0.062   2.931
   29ETH     H3  229   0.944  -0.057   3.061
   29ETH     H4  230   1.147   0.168   3.016
   29ETH     H5  231   1.155   0.047   3.144
   29ETH     H6  232   1.023   0.164   3.143
   30ETH     C1  233   1.005   0.002   4.000
   30ETH     C2  234   1.088   0.090   4.092
   30ETH     H1  235   1.070  -0.055   3.934
   30ETH     H2  236   0.938   0.062   3.939
   30ETH     H3  237   0.945  -0.069   4.057
   30ETH     H4  238   1.152   0.155   4.033
   30ETH     H5  239   1.150   0.031   4.158
   30ETH     H6  240   1.025   0.155   4.154
   31ETH     C1  241   1.001   1.002   0.007
   31ETH     C2  242   1.084   1.081   0.109
   31ETH     H1  243   1.066   0.946  -0.061
   31ETH     H2  244   0.939   1.068  -0.053
   31ETH     H3  245   0.935   0.930   0.056
   31ETH     H4  246   1.154   1.147   0.059
   31ETH     H5  247   1.142   1.016   0.174
   31ETH     H6  248   1.020   1.143   0.172
   32ETH     C1  249   1.023   1.031   1.001
   32ETH     C2  250   1.104   1.110   1.103
   32ETH     H1  251   1.088   0.972   0.937
   32ETH     H2  252   0.965   1.098   0.937
   32ETH     H3  253   0.952   0.965   1.049
   32ETH     H4  254   1.174   1.177   1.053
   32ETH     H5  255   1.162   1.044   1.167
   32ETH     H6  256   1.038   1.169   1.166
   33ETH     C1  257   1.002   1.003   2.019
   33ETH     C2  258   1.093   1.086   2.109
   33ETH     H1  259   1.061   0.939   1.953
   33ETH     H2  260   0.940   1.067   1.957
   33ETH     H3  261   0.937   0.939   2.078
   33ETH     H4  262   1.175   1.128   2.051
   33ETH     H5  263   1.137   1.027   2.189
   33ETH     H6  264   1.038   1.168   2.155
   34ETH     C1  265   1.023   1.002   3.010
   34ETH     C2  266   1.103   1.085   3.108
   34ETH     H1  267   1.091   0.945   2.948
   34ETH     H2  268   0.965   1.067   2.944
   34ETH     H3  269   0.955   0.934   3.061
   34ETH     H4  270   1.161   1.161   3.056
   34ETH     H5  271   1.171   1.023   3.166
   34ETH     H6  272   1.036   1.135   3.178
   35ETH     C1  273   1.004   1.002   4.003
   35ETH     C2  274   1.092   1.089   4.091
   35ETH     H1  275   1.064   0.938   3.938
   35ETH     H2  276   0.940   1.064   3.939
   35ETH     H3  277   0.940   0.937   4.063
   35ETH     H4  278   1.164   1.143   4.030
   35ETH     H5  279   1.148   1.028   4.163
   35ETH     H6  280   1.033   1.161   4.148
   36ETH     C1  281   1.016   2.013   0.011
   36ETH     C2  282   1.122   2.092   0.088
   36ETH     H1  283   1.063   1.942  -0.057
   36ETH     H2  284   0.952   2.079  -0.047
   36ETH     H3  285   0.952   1.956   0.079
   36ETH     H4  286   1.190   2.144   0.021
   36ETH     H5  287   1.179   2.028   0.153
   36ETH     H6  288   1.079   2.166   0.155
   37ETH     C1  289   1.005   2.006   1.016
   37ETH     C2  290   1.091   2.099   1.101
   37ETH     H1  291   1.070   1.938   0.961
   37ETH     H2  292   0.946   2.063   0.944
   37ETH     H3  293   0.937   1.947   1.077
   37ETH     H4  294   1.155   2.161   1.039
   37ETH     H5  295   1.154   2.040   1.168
   37ETH     H6  296   1.029   2.165   1.162
   38ETH     C1  297   0.996   2.013   2.010
   38ETH     C2  298   1.097   2.100   2.083
   38ETH     H1  299   1.049   1.940   1.948
   38ETH     H2  300   0.932   2.073   1.946
   38ETH     H3  301   0.933   1.958   2.080
   38ETH     H4  302   1.167   2.147   2.014
   38ETH     H5  303   1.153   2.040   2.153
   38ETH     H6  304   1.046   2.180   2.137
   39ETH     C1  305   1.009   2.011   3.010
   39ETH     C2  306   1.096   2.098   3.101
   39ETH     H1  307   1.070   1.948   2.946
   39ETH     H2  308   0.945   2.072   2.947
   39ETH     H3  309   0.945   1.945   3.070
   39ETH     H4  310   1.159   2.164   3.042
   39ETH     H5  311   1.161   2.037   3.164
   39ETH     H6  312   1.035   2.161   3.166
   40ETH     C1  313   1.007   2.033   3.998
   40ETH     C2  314   1.095   2.108   4.098
   40ETH     H1  315   1.067   1.988   3.919
   40ETH     H2  316   0.934   2.099   3.951
   40ETH     H3  317   0.952   1.953   4.048
   40ETH     H4  318   1.163   2.176   4.046
   40ETH     H5  319   1.155   2.039   4.157
   40ETH     H6  320   1.034   2.168   4.166
   41ETH     C1  321   1.010   3.003   0.011
   41ETH     C2  322   1.096   3.092   0.101
   41ETH     H1  323   1.070   2.933  -0.047
   41ETH     H2  324   0.953   3.063  -0.059
   41ETH     H3  325   0.940   2.944   0.070
   41ETH     H4  326   1.161   3.156   0.042
   41ETH     H5  327   1.159   3.032   0.167
   41ETH     H6  328   1.035   3.156   0.164
   42ETH     C1  329   1.039   2.988   1.020
   42ETH     C2  330   1.113   3.095   1.097
   42ETH     H1  331   1.107   2.924   0.964
   42ETH     H2  332   0.970   3.035   0.949
   42ETH     H3  333   0.979   2.925   1.086
   42ETH     H4  334   1.181   3.151   1.033
   42ETH     H5  335   1.171   3.050   1.178
   42ETH     H6  336   1.041   3.164   1.139
   43ETH     C1  337   1.010   2.982   2.009
   43ETH     C2  338   1.096   3.079   2.088
   43ETH     H1  339   1.071   2.917   1.947
   43ETH     H2  340   0.941   3.036   1.945
   43ETH     H3  341   0.950   2.920   2.076
   43ETH     H4  342   1.156   3.142   2.022
   43ETH     H5  343   1.163   3.024   2.154
   43ETH     H6  344   1.034   3.144   2.149
   44ETH     C1  345   1.010   3.014   3.000
   44ETH     C2  346   1.093   3.097   3.097
   44ETH     H1  347   1.072   2.944   2.944
   44ETH     H2  348   0.959   3.079   2.929
   44ETH     H3  349   0.934   2.956   3.054
   44ETH     H4  350   1.174   3.149   3.045
   44ETH     H5  351   1.135   3.032   3.173
   44ETH     H6  352   1.033   3.173   3.147
   45ETH     C1  353   1.026   3.022   4.012
   45ETH     C2  354   1.113   3.112   4.100
   45ETH     H1  355   1.086   2.950   3.957
   45ETH     H2  356   0.968   3.079   3.940
   45ETH     H3  357   0.957   2.968   4.076
   45ETH     H4  358   1.178   3.174   4.039
   45ETH     H5  359   1.175   3.052   4.166
   45ETH     H6  360   1.051   3.177   4.161
   46ETH     C1  361   1.020   3.989   0.017
   46ETH     C2  362   1.109   4.057   0.119
   46ETH     H1  363   1.082   3.937  -0.056
   46ETH     H2  364   0.958   4.059  -0.037
   46ETH     H3  365   0.953   3.916   0.065
   46ETH     H4  366   1.178   4.125   0.069
   46ETH     H5  367   1.168   3.985   0.175
   46ETH     H6  368   1.049   4.114   0.190
   47ETH     C1  369   0.998   4.023   1.014
   47ETH     C2  370   1.079   4.108   1.112
   47ETH     H1  371   1.063   3.957   0.956
   47ETH     H2  372   0.942   4.085   0.944
   47ETH     H3  373   0.927   3.960   1.067
   47ETH     H4  374   1.137   4.184   1.059
   47ETH     H5  375   1.147   4.047   1.170
   47ETH     H6  376   1.013   4.161   1.181
   48ETH     C1  377   1.016   4.007   2.018
   48ETH     C2  378   1.105   4.096   2.106
   48ETH     H1  379   1.078   3.944   1.955
   48ETH     H2  380   0.952   4.066   1.954
   48ETH     H3  381   0.952   3.942   2.078
   48ETH     H4  382   1.170   4.158   2.046
   48ETH     H5  383   1.167   4.035   2.172
   48ETH     H6  384   1.044   4.162   2.168
   49ETH     C1  385   1.008   4.026   3.010
   49ETH     C2  386   1.099   4.107   3.101
   49ETH     H1  387   1.065   3.960   2.944
   49ETH     H2  388   0.947   4.091   2.948
   49ETH     H3  389   0.938   3.965   3.067
   49ETH     H4  390   1.166   4.171   3.043
   49ETH     H5  391   1.161   4.042   3.163
   49ETH     H6  392   1.041   4.170   3.168
   50ETH     C1  393   1.012   4.008   4.009
   50ETH     C2  394   1.102   4.095   4.097
   50ETH     H1  395   1.072   3.943   3.944
   50ETH     H2  396   0.948   4.069   3.945
   50ETH     H3  397   0.947   3.944   4.070
   50ETH     H4  398   1.165   4.160   4.036
   50ETH     H5  399   1.167   4.033   4.159
   50ETH     H6  400   1.043   4.158   4.163
   51ETH     C1  401   2.015   0.033   4.979
   51ETH     C2  402   2.100   0.106   5.084
   51ETH     H1  403   2.077  -0.032   4.917
   51ETH     H2  404   1.963   0.104   4.915
   51ETH     H3  405   1.938  -0.029   5.025
   51ETH     H4  406   2.172   0.171   5.035
   51ETH     H5  407   2.155   0.035   5.147
   51ETH     H6  408   2.038   0.167   5.149
   52ETH     C1  409   2.012   0.011   1.011
   52ETH     C2  410   2.107   0.096   1.095
   52ETH     H1  411   2.068  -0.056   0.945
   52ETH     H2  412   1.948   0.073   0.949
   52ETH     H3  413   1.948  -0.051   1.074
   52ETH     H4  414   2.170   0.158   1.032
   52ETH     H5  415   2.172   0.033   1.157
   52ETH     H6  416   2.054   0.163   1.162
   53ETH     C1  417   2.011   0.008   2.011
   53ETH     C2  418   2.098   0.096   2.101
   53ETH     H1  419   2.072  -0.056   1.947
   53ETH     H2  420   1.947   0.068   1.947
   53ETH     H3  421   1.947  -0.057   2.071
   53ETH     H4  422   2.162   0.161   2.041
   53ETH     H5  423   2.162   0.036   2.165
   53ETH     H6  424   2.037   0.160   2.164
   54ETH     C1  425   2.024   4.988   3.008
   54ETH     C2  426   2.109   5.091   3.081
   54ETH     H1  427   2.086   4.919   2.950
   54ETH     H2  428   1.955   5.035   2.940
   54ETH     H3  429   1.964   4.930   3.078
   54ETH     H4  430   2.153   5.163   3.012
   54ETH     H5  431   2.191   5.041   3.132
   54ETH     H6  432   2.051   5.146   3.154
   55ETH     C1  433   2.000   0.008   3.996
   55ETH     C2  434   2.095   0.098   4.076
   55ETH     H1  435   2.057  -0.056   3.928
   55ETH     H2  436   1.931   0.068   3.937
   55ETH     H3  437   1.942  -0.056   4.063
   55ETH     H4  438   2.146   0.168   4.011
   55ETH     H5  439   2.170   0.037   4.126
   55ETH     H6  440   2.041   0.155   4.152
   56ETH     C1  441   2.014   1.002   0.004
   56ETH     C2  442   2.101   1.088   0.095
   56ETH     H1  443   2.074   0.944  -0.066
   56ETH     H2  444   1.945   1.063  -0.054
   56ETH     H3  445   1.955   0.932   0.063
   56ETH     H4  446   2.162   1.157   0.037
   56ETH     H5  447   2.167   1.027   0.157
   56ETH     H6  448   2.038   1.147   0.162
   57ETH     C1  449   1.998   1.031   1.011
   57ETH     C2  450   2.101   1.103   1.098
   57ETH     H1  451   2.049   0.983   0.928
   57ETH     H2  452   1.926   1.100   0.969
   57ETH     H3  453   1.945   0.954   1.068
   57ETH     H4  454   2.166   1.166   1.037
   57ETH     H5  455   2.164   1.033   1.152
   57ETH     H6  456   2.052   1.166   1.172
   58ETH     C1  457   2.002   1.007   2.023
   58ETH     C2  458   2.102   1.080   2.112
   58ETH     H1  459   2.051   0.933   1.960
   58ETH     H2  460   1.949   1.078   1.959
   58ETH     H3  461   1.928   0.954   2.082
   58ETH     H4  462   2.169   1.142   2.052
   58ETH     H5  463   2.164   1.010   2.168
   58ETH     H6  464   2.050   1.144   2.183
   59ETH     C1  465   2.004   0.997   3.034
   59ETH     C2  466   2.093   1.098   3.107
   59ETH     H1  467   2.064   0.933   2.970
   59ETH     H2  468   1.931   1.047   2.970
   59ETH     H3  469   1.949   0.934   3.103
   59ETH     H4  470   2.152   1.157   3.037
   59ETH     H5  471   2.163   1.046   3.173
   59ETH     H6  472   2.033   1.166   3.167
   60ETH     C1  473   2.011   1.000   4.010
   60ETH     C2  474   2.104   1.082   4.099
   60ETH     H1  475   2.068   0.932   3.947
   60ETH     H2  476   1.952   1.065   3.945
   60ETH     H3  477   1.942   0.941   4.070
   60ETH     H4  478   2.179   1.135   4.040
   60ETH     H5  479   2.157   1.019   4.171
   60ETH     H6  480   2.048   1.157   4.156
   61ETH     C1  481   2.012   2.011   0.008
   61ETH     C2  482   2.104   2.101   0.090
   61ETH     H1  483   2.069   1.945  -0.058
   61ETH     H2  484   1.944   2.070  -0.054
   61ETH     H3  485   1.950   1.947   0.072
   61ETH     H4  486   2.170   2.159   0.025
   61ETH     H5  487   2.166   2.043   0.157
   61ETH     H6  488   2.046   2.172   0.150
   62ETH     C1  489   2.008   2.018   1.005
   62ETH     C2  490   2.097   2.102   1.097
   62ETH     H1  491   2.068   1.963   0.933
   62ETH     H2  492   1.938   2.080   0.949
   62ETH     H3  493   1.951   1.944   1.061
   62ETH     H4  494   2.162   2.167   1.039
   62ETH     H5  495   2.160   2.038   1.159
   62ETH     H6  496   2.037   2.164   1.163
   63ETH     C1  497   2.004   2.011   2.011
   63ETH     C2  498   2.090   2.096   2.104
   63ETH     H1  499   2.065   1.943   1.951
   63ETH     H2  500   1.946   2.073   1.943
   63ETH     H3  501   1.934   1.951   2.068
   63ETH     H4  502   2.158   2.159   2.047
   63ETH     H5  503   2.150   2.033   2.170
   63ETH     H6  504   2.029   2.161   2.166
   64ETH     C1  505   2.005   2.024   2.999
   64ETH     C2  506   2.094   2.109   3.089
   64ETH     H1  507   2.067   1.961   2.936
   64ETH     H2  508   1.943   2.087   2.934
   64ETH     H3  509   1.939   1.961   3.058
   64ETH     H4  510   2.165   2.165   3.030
   64ETH     H5  511   2.150   2.046   3.159
   64ETH     H6  512   2.034   2.179   3.147
   65ETH     C1  513   2.004   2.004   4.011
   65ETH     C2  514   2.089   2.105   4.087
   65ETH     H1  515   2.065   1.946   3.942
   65ETH     H2  516   1.926   2.054   3.954
   65ETH     H3  517   1.954   1.935   4.079
   65ETH     H4  518   2.136   2.176   4.019
   65ETH     H5  519   2.168   2.055   4.141
   65ETH     H6  520   2.030   2.161   4.159
   66ETH     C1  521   2.012   3.010   0.009
   66ETH     C2  522   2.112   3.097   0.085
   66ETH     H1  523   2.064   2.941  -0.058
   66ETH     H2  524   1.945   3.071  -0.052
   66ETH     H3  525   1.951   2.951   0.077
   66ETH     H4  526   2.172   3.155   0.016
   66ETH     H5  527   2.180   3.037   0.145
   66ETH     H6  528   2.062   3.167   0.152
   67ETH     C1  529   2.022   3.022   1.010
   67ETH     C2  530   2.120   3.106   1.091
   67ETH     H1  531   2.074   2.950   0.946
   67ETH     H2  532   1.961   3.086   0.946
   67ETH     H3  533   1.954   2.966   1.074
   67ETH     H4  534   2.190   3.158   1.025
   67ETH     H5  535   2.178   3.043   1.159
   67ETH     H6  536   2.068   3.181   1.150
   68ETH     C1  537   2.024   3.008   2.009
   68ETH     C2  538   2.115   3.095   2.095
   68ETH     H1  539   2.084   2.940   1.948
   68ETH     H2  540   1.965   3.067   1.939
   68ETH     H3  541   1.957   2.948   2.069
   68ETH     H4  542   2.176   3.161   2.034
   68ETH     H5  543   2.181   3.035   2.157
   68ETH     H6  544   2.057   3.158   2.163
   69ETH     C1  545   1.987   3.021   3.008
   69ETH     C2  546   2.093   3.092   3.090
   69ETH     H1  547   2.030   2.933   2.961
   69ETH     H2  548   1.947   3.086   2.930
   69ETH     H3  549   1.904   2.987   3.070
   69ETH     H4  550   2.170   3.134   3.027
   69ETH     H5  551   2.144   3.023   3.156
   69ETH     H6  552   2.049   3.171   3.150
   70ETH     C1  553   1.999   3.024   4.007
   70ETH     C2  554   2.098   3.104   4.093
   70ETH     H1  555   2.051   2.967   3.930
   70ETH     H2  556   1.928   3.089   3.957
   70ETH     H3  557   1.942   2.953   4.068
   70ETH     H4  558   2.164   3.164   4.031
   70ETH     H5  559   2.160   3.037   4.154
   70ETH     H6  560   2.045   3.171   4.160
   71ETH     C1  561   2.025   3.994   0.007
   71ETH     C2  562   2.105   4.086   0.097
   71ETH     H1  563   2.091   3.935  -0.057
   71ETH     H2  564   1.958   4.051  -0.056
   71ETH     H3  565   1.966   3.926   0.068
   71ETH     H4  566   2.164   4.154   0.036
   71ETH     H5  567   2.173   4.030   0.161
   71ETH     H6  568   2.040   4.145   0.162
   72ETH     C1  569   2.003   3.999   1.006
   72ETH     C2  570   2.089   4.091   1.092
   72ETH     H1  571   2.065   3.932   0.947
   72ETH     H2  572   1.941   4.057   0.938
   72ETH     H3  573   1.938   3.938   1.068
   72ETH     H4  574   2.154   4.153   1.030
   72ETH     H5  575   2.152   4.033   1.160
   72ETH     H6  576   2.026   4.156   1.151
   73ETH     C1  577   2.000   4.018   2.006
   73ETH     C2  578   2.092   4.094   2.102
   73ETH     H1  579   2.058   3.961   1.934
   73ETH     H2  580   1.936   4.086   1.950
   73ETH     H3  581   1.936   3.948   2.061
   73ETH     H4  582   2.169   4.148   2.048
   73ETH     H5  583   2.142   4.025   2.170
   73ETH     H6  584   2.036   4.165   2.162
   74ETH     C1  585   2.027   4.001   3.017
   74ETH     C2  586   2.111   4.088   3.110
   74ETH     H1  587   2.090   3.936   2.956
   74ETH     H2  588   1.968   4.062   2.949
   74ETH     H3  589   1.958   3.938   3.074
   74ETH     H4  590   2.176   4.156   3.056
   74ETH     H5  591   2.174   4.026   3.172
   74ETH     H6  592   2.047   4.149   3.175
   75ETH     C1  593   1.986   4.009   4.020
   75ETH     C2  594   2.082   4.087   4.108
   75ETH     H1  595   2.041   3.960   3.941
   75ETH     H2  596   1.912   4.075   3.976
   75ETH     H3  597   1.934   3.932   4.078
   75ETH     H4  598   2.144   4.153   4.048
   75ETH     H5  599   2.147   4.019   4.162
   75ETH     H6  600   2.029   4.149   4.179
   76ETH     C1  601   3.025   0.006   4.996
   76ETH     C2  602   3.096   0.096   5.096
   76ETH     H1  603   3.095  -0.058   4.942
   76ETH     H2  604   2.970   0.065   4.923
   76ETH     H3  605   2.954  -0.057   5.048
   76ETH     H4  606   3.152   0.171   5.042
   76ETH     H5  607   3.165   0.038   5.158
   76ETH     H6  608   3.027   0.148   5.161
   77ETH     C1  609   3.025   4.985   1.033
   77ETH     C2  610   3.108   5.089   1.107
   77ETH     H1  611   3.086   4.920   0.971
   77ETH     H2  612   2.954   5.034   0.968
   77ETH     H3  613   2.967   4.922   1.102
   77ETH     H4  614   3.161   5.154   1.037
   77ETH     H5  615   3.181   5.042   1.171
   77ETH     H6  616   3.043   5.152   1.168
   78ETH     C1  617   3.012   0.002   2.016
   78ETH     C2  618   3.100   0.093   2.101
   78ETH     H1  619   3.071  -0.055   1.945
   78ETH     H2  620   2.940   0.062   1.960
   78ETH     H3  621   2.956  -0.066   2.079
   78ETH     H4  622   3.159   0.160   2.039
   78ETH     H5  623   3.169   0.035   2.163
   78ETH     H6  624   3.037   0.152   2.166
   79ETH     C1  625   3.007   0.008   3.007
   79ETH     C2  626   3.098   0.092   3.097
   79ETH     H1  627   3.065  -0.054   2.940
   79ETH     H2  628   2.943   0.072   2.947
   79ETH     H3  629   2.943  -0.057   3.067
   79ETH     H4  630   3.166   0.152   3.037
   79ETH     H5  631   3.159   0.029   3.162
   79ETH     H6  632   3.040   0.158   3.161
   80ETH     C1  633   3.011   0.010   4.010
   80ETH     C2  634   3.102   0.097   4.098
   80ETH     H1  635   3.070  -0.054   3.946
   80ETH     H2  636   2.947   0.072   3.947
   80ETH     H3  637   2.947  -0.053   4.072
   80ETH     H4  638   3.165   0.161   4.037
   80ETH     H5  639   3.166   0.036   4.161
   80ETH     H6  640   3.043   0.162   4.163
   81ETH     C1  641   3.011   0.995   0.018
   81ETH     C2  642   3.080   1.097   0.106
   81ETH     H1  643   3.081   0.940  -0.044
   81ETH     H2  644   2.938   1.042  -0.046
   81ETH     H3  645   2.960   0.924   0.083
   81ETH     H4  646   3.146   1.162   0.049
   81ETH     H5  647   3.138   1.045   0.181
   81ETH     H6  648   3.008   1.156   0.161
   82ETH     C1  649   3.016   1.025   1.017
   82ETH     C2  650   3.102   1.107   1.112
   82ETH     H1  651   3.076   0.959   0.954
   82ETH     H2  652   2.957   1.090   0.953
   82ETH     H3  653   2.947   0.964   1.074
   82ETH     H4  654   3.165   1.178   1.058
   82ETH     H5  655   3.166   1.043   1.172
   82ETH     H6  656   3.038   1.165   1.179
   83ETH     C1  657   3.008   1.005   2.004
   83ETH     C2  658   3.089   1.097   2.094
   83ETH     H1  659   3.072   0.943   1.941
   83ETH     H2  660   2.943   1.064   1.939
   83ETH     H3  661   2.944   0.939   2.064
   83ETH     H4  662   3.157   1.160   2.036
   83ETH     H5  663   3.152   1.044   2.166
   83ETH     H6  664   3.022   1.159   2.152
   84ETH     C1  665   3.011   1.008   3.007
   84ETH     C2  666   3.102   1.095   3.094
   84ETH     H1  667   3.070   0.945   2.941
   84ETH     H2  668   2.946   1.070   2.946
   84ETH     H3  669   2.949   0.944   3.069
   84ETH     H4  670   3.161   1.164   3.034
   84ETH     H5  671   3.171   1.034   3.152
   84ETH     H6  672   3.043   1.152   3.166
   85ETH     C1  673   3.023   1.008   4.023
   85ETH     C2  674   3.119   1.092   4.104
   85ETH     H1  675   3.077   0.944   3.954
   85ETH     H2  676   2.954   1.070   3.965
   85ETH     H3  677   2.967   0.944   4.090
   85ETH     H4  678   3.179   1.156   4.040
   85ETH     H5  679   3.188   1.029   4.161
   85ETH     H6  680   3.064   1.154   4.175
   86ETH     C1  681   3.009   2.022   0.016
   86ETH     C2  682   3.089   2.106   0.114
   86ETH     H1  683   3.074   1.958  -0.044
   86ETH     H2  684   2.952   2.085  -0.051
   86ETH     H3  685   2.939   1.958   0.070
   86ETH     H4  686   3.155   2.174   0.061
   86ETH     H5  687   3.147   2.042   0.179
   86ETH     H6  688   3.022   2.165   0.176
   87ETH     C1  689   3.012   2.014   1.011
   87ETH     C2  690   3.108   2.096   1.097
   87ETH     H1  691   3.068   1.948   0.944
   87ETH     H2  692   2.949   2.078   0.950
   87ETH     H3  693   2.947   1.952   1.073
   87ETH     H4  694   3.172   2.159   1.035
   87ETH     H5  695   3.172   2.032   1.158
   87ETH     H6  696   3.053   2.161   1.165
   88ETH     C1  697   2.990   2.045   2.011
   88ETH     C2  698   3.082   2.122   2.105
   88ETH     H1  699   3.044   1.974   1.949
   88ETH     H2  700   2.940   2.113   1.943
   88ETH     H3  701   2.914   1.989   2.066
   88ETH     H4  702   3.153   2.182   2.049
   88ETH     H5  703   3.137   2.056   2.172
   88ETH     H6  704   3.024   2.190   2.169
   89ETH     C1  705   3.013   2.017   3.010
   89ETH     C2  706   3.104   2.093   3.107
   89ETH     H1  707   3.071   1.965   2.934
   89ETH     H2  708   2.945   2.084   2.958
   89ETH     H3  709   2.953   1.942   3.063
   89ETH     H4  710   3.168   2.163   3.055
   89ETH     H5  711   3.169   2.024   3.162
   89ETH     H6  712   3.047   2.149   3.181
   90ETH     C1  713   3.025   2.027   4.008
   90ETH     C2  714   3.113   2.106   4.105
   90ETH     H1  715   3.086   1.964   3.943
   90ETH     H2  716   2.967   2.093   3.944
   90ETH     H3  717   2.956   1.964   4.063
   90ETH     H4  718   3.184   2.168   4.050
   90ETH     H5  719   3.169   2.039   4.170
   90ETH     H6  720   3.053   2.171   4.168
   91ETH     C1  721   3.015   3.009   0.007
   91ETH     C2  722   3.095   3.098   0.101
   91ETH     H1  723   3.079   2.948  -0.056
   91ETH     H2  724   2.950   3.068  -0.057
   91ETH     H3  725   2.953   2.941   0.066
   91ETH     H4  726   3.172   3.153   0.048
   91ETH     H5  727   3.144   3.039   0.178
   91ETH     H6  728   3.031   3.170   0.152
   92ETH     C1  729   3.008   3.009   1.009
   92ETH     C2  730   3.102   3.097   1.090
   92ETH     H1  731   3.063   2.942   0.944
   92ETH     H2  732   2.943   3.070   0.946
   92ETH     H3  733   2.945   2.949   1.074
   92ETH     H4  734   3.166   3.158   1.026
   92ETH     H5  735   3.166   3.037   1.155
   92ETH     H6  736   3.046   3.166   1.152
   93ETH     C1  737   3.004   3.017   2.014
   93ETH     C2  738   3.089   3.105   2.106
   93ETH     H1  739   3.066   2.955   1.948
   93ETH     H2  740   2.938   3.077   1.952
   93ETH     H3  741   2.942   2.950   2.073
   93ETH     H4  742   3.144   3.180   2.049
   93ETH     H5  743   3.161   3.045   2.161
   93ETH     H6  744   3.027   3.158   2.178
   94ETH     C1  745   3.009   3.011   3.011
   94ETH     C2  746   3.098   3.099   3.099
   94ETH     H1  747   3.068   2.948   2.945
   94ETH     H2  748   2.943   3.072   2.949
   94ETH     H3  749   2.946   2.945   3.072
   94ETH     H4  750   3.162   3.163   3.038
   94ETH     H5  751   3.163   3.038   3.162
   94ETH     H6  752   3.038   3.163   3.164
   95ETH     C1  753   3.020   3.020   4.018
   95ETH     C2  754   3.111   3.105   4.106
   95ETH     H1  755   3.080   2.958   3.952
   95ETH     H2  756   2.954   3.082   3.957
   95ETH     H3  757   2.957   2.954   4.079
   95ETH     H4  758   3.173   3.171   4.046
   95ETH     H5  759   3.177   3.041   4.166
   95ETH     H6  760   3.054   3.166   4.175
   96ETH     C1  761   3.017   4.004   0.016
   96ETH     C2  762   3.103   4.094   0.104
   96ETH     H1  763   3.077   3.932  -0.041
   96ETH     H2  764   2.959   4.060  -0.057
   96ETH     H3  765   2.949   3.946   0.076
   96ETH     H4  766   3.171   4.155   0.045
   96ETH     H5  767   3.162   4.034   0.174
   96ETH     H6  768   3.043   4.160   0.166
   97ETH     C1  769   3.017   4.017   1.005
   97ETH     C2  770   3.114   4.101   1.089
   97ETH     H1  771   3.071   3.947   0.942
   97ETH     H2  772   2.956   4.080   0.941
   97ETH     H3  773   2.950   3.960   1.069
   97ETH     H4  774   3.183   4.156   1.025
   97ETH     H5  775   3.173   4.038   1.156
   97ETH     H6  776   3.061   4.174   1.150
   98ETH     C1  777   3.020   4.005   2.010
   98ETH     C2  778   3.100   4.100   2.099
   98ETH     H1  779   3.084   3.950   1.942
   98ETH     H2  780   2.951   4.059   1.947
   98ETH     H3  781   2.963   3.934   2.070
   98ETH     H4  782   3.161   4.167   2.038
   98ETH     H5  783   3.167   4.045   2.165
   98ETH     H6  784   3.034   4.161   2.161
   99ETH     C1  785   3.012   4.002   3.023
   99ETH     C2  786   3.106   4.097   3.099
   99ETH     H1  787   3.067   3.922   2.973
   99ETH     H2  788   2.956   4.055   2.947
   99ETH     H3  789   2.942   3.955   3.091
   99ETH     H4  790   3.165   4.159   3.032
   99ETH     H5  791   3.174   4.042   3.164
   99ETH     H6  792   3.049   4.165   3.163
  100ETH     C1  793   3.014   4.020   4.013
  100ETH     C2  794   3.101   4.106   4.104
  100ETH     H1  795   3.075   3.954   3.951
  100ETH     H2  796   2.957   4.082   3.945
  100ETH     H3  797   2.945   3.958   4.070
  100ETH     H4  798   3.168   4.169   4.045
  100ETH     H5  799   3.161   4.045   4.170
  100ETH     H6  800   3.038   4.172   4.165
  101ETH     C1  801   4.001   0.009   0.010
  101ETH     C2  802   4.079   0.102   0.101
  101ETH     H1  803   4.068  -0.051  -0.052
  101ETH     H2  804   3.937   0.066  -0.056
  101ETH     H3  805   3.939  -0.059   0.069
  101ETH     H4  806   4.134   0.175   0.041
  101ETH     H5  807   4.150   0.047   0.162
  101ETH     H6  808   4.013   0.157   0.167
  102ETH     C1  809   3.992   4.997   1.008
  102ETH     C2  810   4.080   5.090   1.090
  102ETH     H1  811   4.054   4.926   0.954
  102ETH     H2  812   3.934   5.053   0.936
  102ETH     H3  813   3.924   4.941   1.072
  102ETH     H4  814   4.140   5.153   1.023
  102ETH     H5  815   4.148   5.034   1.154
  102ETH     H6  816   4.021   5.157   1.154
  103ETH     C1  817   4.014   0.007   2.010
  103ETH     C2  818   4.098   0.099   2.099
  103ETH     H1  819   4.077  -0.054   1.946
  103ETH     H2  820   3.946   0.065   1.947
  103ETH     H3  821   3.954  -0.060   2.071
  103ETH     H4  822   4.144   0.179   2.041
  103ETH     H5  823   4.177   0.041   2.145
  103ETH     H6  824   4.039   0.145   2.177
  104ETH     C1  825   4.016   0.005   3.011
  104ETH     C2  826   4.106   0.106   3.083
  104ETH     H1  827   4.077  -0.062   2.951
  104ETH     H2  828   3.945   0.054   2.945
  104ETH     H3  829   3.959  -0.054   3.082
  104ETH     H4  830   4.156   0.172   3.013
  104ETH     H5  831   4.182   0.053   3.140
  104ETH     H6  832   4.047   0.167   3.152
  105ETH     C1  833   4.023   0.021   3.997
  105ETH     C2  834   4.112   0.114   4.079
  105ETH     H1  835   4.082  -0.051   3.942
  105ETH     H2  836   3.963   0.077   3.926
  105ETH     H3  837   3.955  -0.034   4.063
  105ETH     H4  838   4.178   0.173   4.015
  105ETH     H5  839   4.175   0.058   4.148
  105ETH     H6  840   4.051   0.184   4.137
  106ETH     C1  841   4.016   1.005   0.000
  106ETH     C2  842   4.093   1.095   0.096
  106ETH     H1  843   4.084   0.942  -0.058
  106ETH     H2  844   3.957   1.064  -0.070
  106ETH     H3  845   3.948   0.939   0.055
  106ETH     H4  846   4.184   1.132   0.051
  106ETH     H5  847   4.120   1.043   0.188
  106ETH     H6  848   4.035   1.183   0.124
  107ETH     C1  849   4.018   1.014   0.993
  107ETH     C2  850   4.097   1.106   1.087
  107ETH     H1  851   4.084   0.953   0.931
  107ETH     H2  852   3.955   1.073   0.926
  107ETH     H3  853   3.953   0.946   1.048
  107ETH     H4  854   4.162   1.173   1.031
  107ETH     H5  855   4.161   1.048   1.154
  107ETH     H6  856   4.031   1.166   1.149
  108ETH     C1  857   4.014   0.997   2.012
  108ETH     C2  858   4.101   1.081   2.106
  108ETH     H1  859   4.076   0.943   1.940
  108ETH     H2  860   3.946   1.062   1.956
  108ETH     H3  861   3.955   0.925   2.067
  108ETH     H4  862   4.161   1.153   2.051
  108ETH     H5  863   4.168   1.018   2.164
  108ETH     H6  864   4.039   1.136   2.177
  109ETH     C1  865   4.002   1.023   3.028
  109ETH     C2  866   4.102   1.113   3.100
  109ETH     H1  867   4.053   0.968   2.951
  109ETH     H2  868   3.923   1.082   2.981
  109ETH     H3  869   3.954   0.953   3.096
  109ETH     H4  870   4.167   1.165   3.029
  109ETH     H5  871   4.164   1.056   3.168
  109ETH     H6  872   4.048   1.189   3.155
  110ETH     C1  873   4.011   1.008   4.012
  110ETH     C2  874   4.100   1.093   4.102
  110ETH     H1  875   4.071   0.944   3.947
  110ETH     H2  876   3.948   1.070   3.949
  110ETH     H3  877   3.946   0.944   4.072
  110ETH     H4  878   4.165   1.158   4.043
  110ETH     H5  879   4.163   1.030   4.165
  110ETH     H6  880   4.040   1.156   4.168
  111ETH     C1  881   4.005   2.027   0.007
  111ETH     C2  882   4.084   2.112   0.105
  111ETH     H1  883   4.072   1.964  -0.050
  111ETH     H2  884   3.950   2.090  -0.063
  111ETH     H3  885   3.934   1.966   0.062
  111ETH     H4  886   4.161   2.168   0.053
  111ETH     H5  887   4.131   2.050   0.182
  111ETH     H6  888   4.017   2.181   0.156
  112ETH     C1  889   4.014   2.015   1.020
  112ETH     C2  890   4.100   2.094   1.118
  112ETH     H1  891   4.073   1.946   0.959
  112ETH     H2  892   3.961   2.082   0.952
  112ETH     H3  893   3.940   1.957   1.073
  112ETH     H4  894   4.168   2.161   1.066
  112ETH     H5  895   4.160   2.028   1.180
  112ETH     H6  896   4.037   2.155   1.183
  113ETH     C1  897   4.009   1.993   2.017
  113ETH     C2  898   4.095   2.086   2.101
  113ETH     H1  899   4.072   1.921   1.965
  113ETH     H2  900   3.955   2.048   1.941
  113ETH     H3  901   3.938   1.938   2.078
  113ETH     H4  902   4.166   2.138   2.038
  113ETH     H5  903   4.152   2.031   2.175
  113ETH     H6  904   4.034   2.160   2.154
  114ETH     C1  905   4.012   2.003   3.005
  114ETH     C2  906   4.102   2.091   3.092
  114ETH     H1  907   4.072   1.937   2.944
  114ETH     H2  908   3.951   2.065   2.940
  114ETH     H3  909   3.946   1.943   3.067
  114ETH     H4  910   4.169   2.152   3.031
  114ETH     H5  911   4.163   2.031   3.160
  114ETH     H6  912   4.040   2.158   3.151
  115ETH     C1  913   4.010   2.012   4.008
  115ETH     C2  914   4.101   2.097   4.096
  115ETH     H1  915   4.068   1.947   3.942
  115ETH     H2  916   3.947   2.075   3.945
  115ETH     H3  917   3.944   1.949   4.068
  115ETH     H4  918   4.168   2.158   4.036
  115ETH     H5  919   4.164   2.034   4.159
  115ETH     H6  920   4.043   2.163   4.160
  116ETH     C1  921   4.021   3.008   0.012
  116ETH     C2  922   4.085   3.103   0.114
  116ETH     H1  923   4.095   2.942  -0.034
  116ETH     H2  924   3.974   3.063  -0.069
  116ETH     H3  925   3.944   2.946   0.059
  116ETH     H4  926   4.141   3.182   0.065
  116ETH     H5  927   4.153   3.050   0.180
  116ETH     H6  928   4.009   3.151   0.176
  117ETH     C1  929   4.029   2.994   1.005
  117ETH     C2  930   4.112   3.072   1.107
  117ETH     H1  931   4.091   2.920   0.955
  117ETH     H2  932   3.989   3.060   0.928
  117ETH     H3  933   3.946   2.943   1.052
  117ETH     H4  934   4.182   3.140   1.056
  117ETH     H5  935   4.170   3.005   1.170
  117ETH     H6  936   4.048   3.131   1.172
  118ETH     C1  937   4.003   3.039   2.003
  118ETH     C2  938   4.099   3.118   2.091
  118ETH     H1  939   4.060   2.971   1.940
  118ETH     H2  940   3.946   3.104   1.936
  118ETH     H3  941   3.933   2.981   2.062
  118ETH     H4  942   4.162   3.185   2.031
  118ETH     H5  943   4.166   3.051   2.145
  118ETH     H6  944   4.045   3.179   2.163
  119ETH     C1  945   4.014   2.991   2.993
  119ETH     C2  946   4.103   3.075   3.082
  119ETH     H1  947   4.073   2.925   2.929
  119ETH     H2  948   3.952   3.054   2.929
  119ETH     H3  949   3.947   2.929   3.053
  119ETH     H4  950   4.176   3.133   3.025
  119ETH     H5  951   4.157   3.015   3.156
  119ETH     H6  952   4.040   3.146   3.136
  120ETH     C1  953   4.015   3.003   4.015
  120ETH     C2  954   4.101   3.096   4.101
  120ETH     H1  955   4.076   2.940   3.952
  120ETH     H2  956   3.950   3.061   3.951
  120ETH     H3  957   3.952   2.940   4.077
  120ETH     H4  958   4.164   3.160   4.038
  120ETH     H5  959   4.167   3.039   4.166
  120ETH     H6  960   4.039   3.161   4.163
  121ETH     C1  961   4.007   4.018   0.015
  121ETH     C2  962   4.097   4.099   0.108
  121ETH     H1  963   4.066   3.953  -0.050
  121ETH     H2  964   3.947   4.084  -0.047
  121ETH     H3  965   3.937   3.956   0.071
  121ETH     H4  966   4.156   4.170   0.050
  121ETH     H5  967   4.165   4.035   0.163
  121ETH     H6  968   4.038   4.155   0.180
  122ETH     C1  969   3.999   4.028   1.002
  122ETH     C2  970   4.094   4.113   1.085
  122ETH     H1  971   4.053   3.960   0.935
  122ETH     H2  972   3.934   4.090   0.940
  122ETH     H3  973   3.936   3.966   1.066
  122ETH     H4  974   4.146   4.187   1.024
  122ETH     H5  975   4.170   4.053   1.134
  122ETH     H6  976   4.039   4.168   1.162
  123ETH     C1  977   4.009   4.007   2.007
  123ETH     C2  978   4.099   4.095   2.093
  123ETH     H1  979   4.068   3.943   1.941
  123ETH     H2  980   3.943   4.067   1.944
  123ETH     H3  981   3.946   3.943   2.069
  123ETH     H4  982   4.162   4.159   2.031
  123ETH     H5  983   4.164   4.034   2.155
  123ETH     H6  984   4.039   4.159   2.158
  124ETH     C1  985   3.997   4.014   3.006
  124ETH     C2  986   4.083   4.107   3.090
  124ETH     H1  987   4.058   3.949   2.943
  124ETH     H2  988   3.931   4.070   2.940
  124ETH     H3  989   3.935   3.950   3.069
  124ETH     H4  990   4.148   4.168   3.028
  124ETH     H5  991   4.145   4.050   3.159
  124ETH     H6  992   4.022   4.175   3.150
  125ETH     C1  993   4.013   4.009   4.015
  125ETH     C2  994   4.101   4.098   4.103
  125ETH     H1  995   4.073   3.945   3.950
  125ETH     H2  996   3.949   4.070   3.953
  125ETH     H3  997   3.949   3.944   4.076
  125ETH     H4  998   4.164   4.163   4.041
  125ETH     H5  999   4.167   4.039   4.166
  125ETH     H6 1000   4.040   4.161   4.167
  126SOL     OW 1001   0.224   0.637   0.102
  126SOL    HW1 1002   0.146   0.624   0.162
  126SOL    HW2 1003   0.237   0.555   0.046
  127SOL     OW 1004   5.009   0.389   0.636
  127SOL    HW1 1005   4.929   0.423   0.687
  127SOL    HW2 1006   4.991   0.296   0.604
  128SOL     OW 1007   0.562   1.292   1.184
  128SOL    HW1 1008   0.471   1.292   1.144
  128SOL    HW2 1009   0.584   1.383   1.218
  129SOL     OW 1010   1.552   1.513   0.710
  129SOL    HW1 1011   1.511   1.491   0.798
  129SOL    HW2 1012   1.480   1.518   0.640
  130SOL     OW 1013   1.129   0.702   0.701
  130SOL    HW1 1014   1.181   0.785   0.683
  130SOL    HW2 1015   1.092   0.704   0.794
  131SOL     OW 1016   1.789   0.604   0.232
  131SOL    HW1 1017   1.727   0.643   0.163
  131SOL    HW2 1018   1.736   0.546   0.294
  132SOL     OW 1019   0.720   1.141   1.028
  132SOL    HW1 1020   0.660   1.185   1.094
  132SOL    HW2 1021   0.781   1.209   0.987
  133SOL     OW 1022   0.862   0.780   1.817
  133SOL    HW1 1023   0.837   0.854   1.879
  133SOL    HW2 1024   0.892   0.818   1.729
  134SOL     OW 1025   0.684   1.010   0.658
  134SOL    HW1 1026   0.747   0.996   0.734
  134SOL    HW2 1027   0.604   1.061   0.690
  135SOL     OW 1028   0.708   1.156   1.813
  135SOL    HW1 1029   0.763   1.236   1.837
  135SOL    HW2 1030   0.620   1.186   1.775
  136SOL     OW 1031   0.331   1.430   1.065
  136SOL    HW1 1032   0.257   1.396   1.007
  136SOL    HW2 1033   0.395   1.484   1.010
  137SOL     OW 1034   1.460   1.500   1.350
  137SOL    HW1 1035   1.508   1.587   1.358
  137SOL    HW2 1036   1.399   1.488   1.428
  138SOL     OW 1037   0.449   0.397   1.478
  138SOL    HW1 1038   0.530   0.339   1.491
  138SOL    HW2 1039   0.367   0.345   1.500
  139SOL     OW 1040   1.615   0.454   0.739
  139SOL    HW1 1041   1.534   0.474   0.683
  139SOL    HW2 1042   1.633   0.530   0.801
  140SOL     OW 1043   0.239   1.711   0.486
  140SOL    HW1 1044   0.262   1.789   0.544
  140SOL    HW2 1045   0.312   1.698   0.418
  141SOL     OW 1046   1.140   1.343   1.693
  141SOL    HW1 1047   1.180   1.343   1.785
  141SOL    HW2 1048   1.083   1.262   1.682
  142SOL     OW 1049   0.219   1.442   0.530
  142SOL    HW1 1050   0.218   1.540   0.547
  142SOL    HW2 1051   0.178   1.394   0.608
  143SOL     OW 1052   0.611   1.794   1.430
  143SOL    HW1 1053   0.525   1.770   1.477
  143SOL    HW2 1054   0.639   1.886   1.457
  144SOL     OW 1055   0.601   0.975   0.134
  144SOL    HW1 1056   0.613   1.045   0.063
  144SOL    HW2 1057   0.642   1.008   0.219
  145SOL     OW 1058   1.603   0.156   1.492
  145SOL    HW1 1059   1.604   0.232   1.428
  145SOL    HW2 1060   1.572   0.187   1.582
  146SOL     OW 1061   0.129   0.646   0.571
  146SOL    HW1 1062   0.082   0.558   0.576
  146SOL    HW2 1063   0.134   0.686   0.662
  147SOL     OW 1064   1.839   1.754   0.354
  147SOL    HW1 1065   1.914   1.719   0.411
  147SOL    HW2 1066   1.861   1.848   0.326
  148SOL     OW 1067   4.978   1.598   0.120
  148SOL    HW1 1068   4.978   1.506   0.160
  148SOL    HW2 1069   5.023   1.661   0.182
  149SOL     OW 1070   1.693   0.901   0.630
  149SOL    HW1 1071   1.782   0.869   0.598
  149SOL    HW2 1072   1.658   0.971   0.567
  150SOL     OW 1073   1.636   1.108   0.452
  150SOL    HW1 1074   1.723   1.107   0.403
  150SOL    HW2 1075   1.640   1.175   0.526
  151SOL     OW 1076   0.132   0.749   1.587
  151SOL    HW1 1077   0.231   0.758   1.591
  151SOL    HW2 1078   0.089   0.838   1.598
  152SOL     OW 1079   0.608   1.385   0.734
  152SOL    HW1 1080   0.563   1.297   0.747
  152SOL    HW2 1081   0.595   1.415   0.639
  153SOL     OW 1082   1.293   1.229   1.419
  153SOL    HW1 1083   1.340   1.168   1.355
  153SOL    HW2 1084   1.342   1.231   1.506
  154SOL     OW 1085   0.813   0.027   0.552
  154SOL    HW1 1086   0.851   0.113   0.517
  154SOL    HW2 1087   0.713   0.028   0.539
  155SOL     OW 1088   1.478   1.005   0.209
  155SOL    HW1 1089   1.411   0.942   0.246
  155SOL    HW2 1090   1.564   0.996   0.259
  156SOL     OW 1091   1.188   1.802   1.614
  156SOL    HW1 1092   1.204   1.865   1.539
  156SOL    HW2 1093   1.204   1.708   1.582
  157SOL     OW 1094   0.326   0.253   1.806
  157SOL    HW1 1095   0.390   0.324   1.834
  157SOL    HW2 1096   0.235   0.273   1.843
  158SOL     OW 1097   1.465   1.419   0.957
  158SOL    HW1 1098   1.394   1.435   1.025
  158SOL    HW2 1099   1.458   1.325   0.923
  159SOL     OW 1100   1.652   1.737   0.589
  159SOL    HW1 1101   1.640   1.711   0.493
  159SOL    HW2 1102   1.625   1.661   0.648
  160SOL     OW 1103   0.595   0.724   0.267
  160SOL    HW1 1104   0.616   0.809   0.219
  160SOL    HW2 1105   0.524   0.742   0.336
  161SOL     OW 1106   1.286   0.356   0.928
  161SOL    HW1 1107   1.207   0.300   0.901
  161SOL    HW2 1108   1.340   0.307   0.996
  162SOL     OW 1109   1.584   1.652   0.328
  162SOL    HW1 1110   1.677   1.689   0.320
  162SOL    HW2 1111   1.547   1.633   0.237
  163SOL     OW 1112   0.796   0.611   1.453
  163SOL    HW1 1113   0.768   0.592   1.547
  163SOL    HW2 1114   0.750   0.548   1.391
  164SOL     OW 1115   1.396   0.475   1.679
  164SOL    HW1 1116   1.391   0.523   1.766
  164SOL    HW2 1117   1.460   0.399   1.687
  165SOL     OW 1118   0.956   0.885   1.581
  165SOL    HW1 1119   1.015   0.812   1.546
  165SOL    HW2 1120   0.907   0.927   1.505
  166SOL     OW 1121   0.992   0.415   1.235
  166SOL    HW1 1122   0.924   0.451   1.298
  166SOL    HW2 1123   0.946   0.369   1.159
  167SOL     OW 1124   1.048   0.696   0.430
  167SOL    HW1 1125   1.067   0.690   0.528
  167SOL    HW2 1126   0.965   0.645   0.408
  168SOL     OW 1127   0.133   1.861   1.580
  168SOL    HW1 1128   0.132   1.822   1.672
  168SOL    HW2 1129   0.044   1.845   1.536
  169SOL     OW 1130   0.889   0.354   0.207
  169SOL    HW1 1131   0.924   0.416   0.137
  169SOL    HW2 1132   0.851   0.272   0.164
  170SOL     OW 1133   1.708   0.577   1.825
  170SOL    HW1 1134   1.669   0.656   1.778
  170SOL    HW2 1135   1.739   0.510   1.758
  171SOL     OW 1136   1.373   1.140   0.538
  171SOL    HW1 1137   1.457   1.121   0.487
  171SOL    HW2 1138   1.319   1.209   0.488
  172SOL     OW 1139   0.517   0.216   0.891
  172SOL    HW1 1140   0.547   0.216   0.987
  172SOL    HW2 1141   0.557   0.293   0.843
  173SOL     OW 1142   0.997   1.441   0.469
  173SOL    HW1 1143   0.964   1.522   0.422
  173SOL    HW2 1144   0.998   1.457   0.568
  174SOL     OW 1145   0.360   1.807   0.854
  174SOL    HW1 1146   0.399   1.716   0.869
  174SOL    HW2 1147   0.428   1.877   0.880
  175SOL     OW 1148   1.228   1.537   1.514
  175SOL    HW1 1149   1.213   1.464   1.582
  175SOL    HW2 1150   1.165   1.523   1.437
  176SOL     OW 1151   0.355   0.933   0.265
  176SOL    HW1 1152   0.425   0.964   0.201
  176SOL    HW2 1153   0.297   0.864   0.222
  177SOL     OW 1154   1.476   0.741   0.726
  177SOL    HW1 1155   1.467   0.696   0.815
  177SOL    HW2 1156   1.557   0.799   0.727
  178SOL     OW 1157   0.463   1.258   1.736
  178SOL    HW1 1158   0.438   1.267   1.640
  178SOL    HW2 1159   0.381   1.265   1.793
  179SOL     OW 1160   1.117   1.782   0.242
  179SOL    HW1 1161   1.043   1.740   0.296
  179SOL    HW2 1162   1.136   1.725   0.162
  180SOL     OW 1163   0.208   0.281   1.512
  180SOL    HW1 1164   0.127   0.321   1.469
  180SOL    HW2 1165   0.180   0.221   1.586
  181SOL     OW 1166   1.648   1.390   0.086
  181SOL    HW1 1167   1.609   1.481   0.080
  181SOL    HW2 1168   1.575   1.322   0.091
  182SOL     OW 1169   0.477   1.722   0.340
  182SOL    HW1 1170   0.512   1.793   0.401
  182SOL    HW2 1171   0.547   1.701   0.271
  183SOL     OW 1172   1.404   0.114   0.389
  183SOL    HW1 1173   1.399   0.031   0.335
  183SOL    HW2 1174   1.495   0.121   0.431
  184SOL     OW 1175   0.280   1.800   1.225
  184SOL    HW1 1176   0.315   1.742   1.299
  184SOL    HW2 1177   0.272   1.746   1.141
  185SOL     OW 1178   0.930   1.705   0.895
  185SOL    HW1 1179   1.007   1.656   0.935
  185SOL    HW2 1180   0.890   1.650   0.821
  186SOL     OW 1181   0.392   0.689   0.478
  186SOL    HW1 1182   0.419   0.594   0.488
  186SOL    HW2 1183   0.294   0.698   0.498
  187SOL     OW 1184   1.531   0.233   1.736
  187SOL    HW1 1185   1.541   0.255   1.833
  187SOL    HW2 1186   1.456   0.167   1.724
  188SOL     OW 1187   0.610   0.133   0.094
  188SOL    HW1 1188   0.681   0.091   0.150
  188SOL    HW2 1189   0.597   0.080   0.010
  189SOL     OW 1190   0.771   0.288   1.754
  189SOL    HW1 1191   0.853   0.231   1.747
  189SOL    HW2 1192   0.711   0.251   1.825
  190SOL     OW 1193   0.875   1.511   1.194
  190SOL    HW1 1194   0.859   1.480   1.101
  190SOL    HW2 1195   0.950   1.459   1.235
  191SOL     OW 1196   1.346   0.588   1.434
  191SOL    HW1 1197   1.373   0.553   1.524
  191SOL    HW2 1198   1.379   0.681   1.423
  192SOL     OW 1199   0.815   1.395   0.937
  192SOL    HW1 1200   0.905   1.384   0.895
  192SOL    HW2 1201   0.745   1.394   0.865
  193SOL     OW 1202   0.912   0.498   0.900
  193SOL    HW1 1203   0.886   0.495   0.803
  193SOL    HW2 1204   0.971   0.420   0.921
  194SOL     OW 1205   0.550   0.064   0.497
  194SOL    HW1 1206   0.467   0.066   0.554
  194SOL    HW2 1207   0.549   0.142   0.434
  195SOL     OW 1208   1.440   1.236   0.087
  195SOL    HW1 1209   1.457   1.146   0.127
  195SOL    HW2 1210   1.344   1.243   0.060
  196SOL     OW 1211   0.939   0.248   0.455
  196SOL    HW1 1212   0.911   0.294   0.371
  196SOL    HW2 1213   1.038   0.258   0.468
  197SOL     OW 1214   1.082   0.678   1.462
  197SOL    HW1 1215   1.003   0.617   1.470
  197SOL    HW2 1216   1.165   0.623   1.455
  198SOL     OW 1217   1.230   1.567   0.791
  198SOL    HW1 1218   1.242   1.642   0.726
  198SOL    HW2 1219   1.295   1.577   0.866
  199SOL     OW 1220   0.461   1.147   0.737
  199SOL    HW1 1221   0.403   1.109   0.809
  199SOL    HW2 1222   0.419   1.130   0.647
  200SOL     OW 1223   1.269   1.793   0.604
  200SOL    HW1 1224   1.316   1.861   0.548
  200SOL    HW2 1225   1.187   1.834   0.644
  201SOL     OW 1226   1.027   0.531   0.036
  201SOL    HW1 1227   0.983   0.614   0.003
  201SOL    HW2 1228   1.102   0.555   0.098
  202SOL     OW 1229   0.074   0.559   1.397
  202SOL    HW1 1230   0.164   0.549   1.354
  202SOL    HW2 1231   0.077   0.635   1.463
  203SOL     OW 1232   0.560   0.220   1.168
  203SOL    HW1 1233   0.602   0.154   1.231
  203SOL    HW2 1234   0.468   0.242   1.200
  204SOL     OW 1235   0.866   0.459   0.635
  204SOL    HW1 1236   0.820   0.519   0.569
  204SOL    HW2 1237   0.890   0.373   0.591
  205SOL     OW 1238   1.004   0.073   0.737
  205SOL    HW1 1239   0.930   0.067   0.670
  205SOL    HW2 1240   1.046  -0.017   0.748
  206SOL     OW 1241   1.439   1.166   0.857
  206SOL    HW1 1242   1.373   1.092   0.864
  206SOL    HW2 1243   1.466   1.178   0.762
  207SOL     OW 1244   1.470   0.603   0.978
  207SOL    HW1 1245   1.412   0.521   0.980
  207SOL    HW2 1246   1.533   0.601   1.056
  208SOL     OW 1247   1.894   0.837   0.429
  208SOL    HW1 1248   1.928   0.748   0.458
  208SOL    HW2 1249   1.845   0.827   0.342
  209SOL     OW 1250   0.489   1.407   0.159
  209SOL    HW1 1251   0.424   1.373   0.227
  209SOL    HW2 1252   0.443   1.416   0.070
  210SOL     OW 1253   1.671   1.275   0.654
  210SOL    HW1 1254   1.770   1.279   0.660
  210SOL    HW2 1255   1.632   1.365   0.674
  211SOL     OW 1256   1.403   0.565   0.090
  211SOL    HW1 1257   1.329   0.553   0.156
  211SOL    HW2 1258   1.475   0.499   0.108
  212SOL     OW 1259   0.527   0.267   0.318
  212SOL    HW1 1260   0.555   0.208   0.242
  212SOL    HW2 1261   0.505   0.358   0.282
  213SOL     OW 1262   1.755   1.233   1.581
  213SOL    HW1 1263   1.846   1.191   1.572
  213SOL    HW2 1264   1.765   1.330   1.604
  214SOL     OW 1265   1.067   1.364   1.343
  214SOL    HW1 1266   0.983   1.327   1.383
  214SOL    HW2 1267   1.146   1.312   1.377
  215SOL     OW 1268   1.611   1.628   1.653
  215SOL    HW1 1269   1.600   1.663   1.560
  215SOL    HW2 1270   1.696   1.575   1.659
  216SOL     OW 1271   1.633   1.091   1.085
  216SOL    HW1 1272   1.626   1.163   1.154
  216SOL    HW2 1273   1.566   1.107   1.012
  217SOL     OW 1274   0.909   0.088   1.393
  217SOL    HW1 1275   0.941   0.068   1.300
  217SOL    HW2 1276   0.982   0.135   1.443
  218SOL     OW 1277   0.977   1.128   1.698
  218SOL    HW1 1278   0.883   1.136   1.734
  218SOL    HW2 1279   0.989   1.037   1.658
  219SOL     OW 1280   0.711   1.061   0.373
  219SOL    HW1 1281   0.687   1.051   0.470
  219SOL    HW2 1282   0.791   1.005   0.352
  220SOL     OW 1283   0.424   0.811   1.246
  220SOL    HW1 1284   0.493   0.826   1.318
  220SOL    HW2 1285   0.373   0.727   1.266
  221SOL     OW 1286   1.267   0.379   1.273
  221SOL    HW1 1287   1.305   0.457   1.324
  221SOL    HW2 1288   1.173   0.399   1.247
  222SOL     OW 1289   0.092   1.581   1.287
  222SOL    HW1 1290   0.040   1.631   1.355
  222SOL    HW2 1291   0.185   1.566   1.321
  223SOL     OW 1292   0.351   1.103   0.491
  223SOL    HW1 1293   0.352   1.184   0.432
  223SOL    HW2 1294   0.355   1.021   0.434
  224SOL     OW 1295   0.553   0.541   0.863
  224SOL    HW1 1296   0.566   0.600   0.783
  224SOL    HW2 1297   0.616   0.569   0.936
  225SOL     OW 1298   1.245   1.348   0.401
  225SOL    HW1 1299   1.305   1.422   0.432
  225SOL    HW2 1300   1.151   1.367   0.430
  226SOL     OW 1301   1.276   1.453   1.149
  226SOL    HW1 1302   1.338   1.461   1.226
  226SOL    HW2 1303   1.198   1.395   1.174
  227SOL     OW 1304   1.585   0.631   0.471
  227SOL    HW1 1305   1.536   0.675   0.547
  227SOL    HW2 1306   1.628   0.700   0.414
  228SOL     OW 1307   0.356   1.517   1.319
  228SOL    HW1 1308   0.338   1.479   1.228
  228SOL    HW2 1309   0.454   1.537   1.327
  229SOL     OW 1310   0.412   0.743   1.601
  229SOL    HW1 1311   0.474   0.794   1.541
  229SOL    HW2 1312   0.452   0.654   1.622
  230SOL     OW 1313   1.601   0.782   1.679
  230SOL    HW1 1314   1.510   0.822   1.678
  230SOL    HW2 1315   1.657   0.823   1.606
  231SOL     OW 1316   0.992   0.134   1.728
  231SOL    HW1 1317   1.057   0.201   1.694
  231SOL    HW2 1318   1.024   0.042   1.706
  232SOL     OW 1319   0.489   0.040   1.725
  232SOL    HW1 1320   0.463   0.020   1.631
  232SOL    HW2 1321   0.424   0.105   1.765
  233SOL     OW 1322   0.587   0.878   1.031
  233SOL    HW1 1323   0.628   0.969   1.032
  233SOL    HW2 1324   0.526   0.868   1.110
  234SOL     OW 1325   1.355   0.853   1.048
  234SOL    HW1 1326   1.269   0.855   0.997
  234SOL    HW2 1327   1.400   0.765   1.033
  235SOL     OW 1328   1.206   0.528   0.273
  235SOL    HW1 1329   1.212   0.443   0.327
  235SOL    HW2 1330   1.160   0.598   0.327
  236SOL     OW 1331   0.027   1.318   1.327
  236SOL    HW1 1332   0.093   1.263   1.378
  236SOL    HW2 1333   0.064   1.410   1.311
  237SOL     OW 1334   0.722   0.634   1.058
  237SOL    HW1 1335   0.797   0.611   0.996
  237SOL    HW2 1336   0.691   0.728   1.039
  238SOL     OW 1337   1.728   0.962   1.847
  238SOL    HW1 1338   1.686   0.899   1.782
  238SOL    HW2 1339   1.668   0.974   1.926
  239SOL     OW 1340   0.306   0.072   0.630
  239SOL    HW1 1341   0.296   0.168   0.654
  239SOL    HW2 1342   0.359   0.025   0.701
  240SOL     OW 1343   1.615   0.377   0.365
  240SOL    HW1 1344   1.646   0.305   0.427
  240SOL    HW2 1345   1.588   0.458   0.417
  241SOL     OW 1346   1.051   0.719   0.966
  241SOL    HW1 1347   1.036   0.751   1.060
  241SOL    HW2 1348   0.998   0.635   0.951
  242SOL     OW 1349   0.982   1.563   1.712
  242SOL    HW1 1350   0.964   1.611   1.626
  242SOL    HW2 1351   1.030   1.478   1.694
  243SOL     OW 1352   1.857   1.508   1.607
  243SOL    HW1 1353   1.873   1.533   1.512
  243SOL    HW2 1354   1.939   1.527   1.661
  244SOL     OW 1355   0.354   0.918   1.803
  244SOL    HW1 1356   0.436   0.943   1.854
  244SOL    HW2 1357   0.377   0.851   1.733
  245SOL     OW 1358   1.487   0.237   0.140
  245SOL    HW1 1359   1.425   0.204   0.211
  245SOL    HW2 1360   1.554   0.299   0.180
  246SOL     OW 1361   1.269   0.800   0.044
  246SOL    HW1 1362   1.330   0.721   0.043
  246SOL    HW2 1363   1.315   0.878   0.000
  247SOL     OW 1364   1.055   1.349   0.829
  247SOL    HW1 1365   1.071   1.265   0.777
  247SOL    HW2 1366   1.130   1.413   0.811
  248SOL     OW 1367   0.326   0.808   0.932
  248SOL    HW1 1368   0.422   0.834   0.945
  248SOL    HW2 1369   0.305   0.729   0.988
  249SOL     OW 1370   0.336   0.504   1.019
  249SOL    HW1 1371   0.286   0.424   0.984
  249SOL    HW2 1372   0.413   0.524   0.960
  250SOL     OW 1373   1.139   0.384   1.685
  250SOL    HW1 1374   1.086   0.437   1.751
  250SOL    HW2 1375   1.232   0.421   1.680
  251SOL     OW 1376   1.134   0.224   1.471
  251SOL    HW1 1377   1.137   0.290   1.546
  251SOL    HW2 1378   1.193   0.255   1.397
  252SOL     OW 1379   0.500   1.573   0.907
  252SOL    HW1 1380   0.568   1.642   0.933
  252SOL    HW2 1381   0.543   1.505   0.848
  253SOL     OW 1382   0.988   0.782   1.228
  253SOL    HW1 1383   1.041   0.758   1.309
  253SOL    HW2 1384   0.893   0.757   1.242
  254SOL     OW 1385   0.052   0.523   1.107
  254SOL    HW1 1386   0.146   0.547   1.087
  254SOL    HW2 1387   0.031   0.546   1.202
  255SOL     OW 1388   0.174   0.520   1.718
  255SOL    HW1 1389   0.240   0.472   1.661
  255SOL    HW2 1390   0.146   0.605   1.672
  256SOL     OW 1391   1.377   0.939   1.655
  256SOL    HW1 1392   1.395   1.037   1.661
  256SOL    HW2 1393   1.375   0.912   1.558
  257SOL     OW 1394   0.815   0.574   0.356
  257SOL    HW1 1395   0.828   0.494   0.298
  257SOL    HW2 1396   0.735   0.625   0.325
  258SOL     OW 1397   1.646   0.601   1.187
  258SOL    HW1 1398   1.628   0.542   1.265
  258SOL    HW2 1399   1.736   0.580   1.149
  259SOL     OW 1400   0.290   1.552   1.737
  259SOL    HW1 1401   0.235   1.625   1.777
  259SOL    HW2 1402   0.257   1.464   1.770
  260SOL     OW 1403   0.696   0.456   1.258
  260SOL    HW1 1404   0.644   0.376   1.230
  260SOL    HW2 1405   0.696   0.523   1.184
  261SOL     OW 1406   0.925   1.680   1.470
  261SOL    HW1 1407   0.903   1.640   1.381
  261SOL    HW2 1408   0.924   1.780   1.462
  262SOL     OW 1409   0.458   0.497   0.197
  262SOL    HW1 1410   0.531   0.565   0.208
  262SOL    HW2 1411   0.369   0.542   0.201
  263SOL     OW 1412   0.173   1.128   1.458
  263SOL    HW1 1413   0.149   1.090   1.548
  263SOL    HW2 1414   0.162   1.057   1.388
  264SOL     OW 1415   1.289   0.842   0.311
  264SOL    HW1 1416   1.214   0.809   0.368
  264SOL    HW2 1417   1.271   0.820   0.215
  265SOL     OW 1418   1.764   1.737   1.148
  265SOL    HW1 1419   1.822   1.772   1.074
  265SOL    HW2 1420   1.740   1.642   1.130
  266SOL     OW 1421   1.256   1.731   1.122
  266SOL    HW1 1422   1.336   1.751   1.065
  266SOL    HW2 1423   1.249   1.632   1.135
  267SOL     OW 1424   0.681   1.667   1.727
  267SOL    HW1 1425   0.621   1.747   1.726
  267SOL    HW2 1426   0.748   1.674   1.653
  268SOL     OW 1427   1.722   0.150   0.504
  268SOL    HW1 1428   1.767   0.109   0.424
  268SOL    HW2 1429   1.742   0.095   0.585
  269SOL     OW 1430   1.383   1.567   0.491
  269SOL    HW1 1431   1.455   1.595   0.428
  269SOL    HW2 1432   1.335   1.647   0.524
  270SOL     OW 1433   0.147   1.763   1.835
  270SOL    HW1 1434   0.092   1.699   1.889
  270SOL    HW2 1435   0.206   1.816   1.896
  271SOL     OW 1436   1.279   0.925   0.667
  271SOL    HW1 1437   1.353   0.859   0.680
  271SOL    HW2 1438   1.313   1.002   0.614
  272SOL     OW 1439   0.819   1.275   1.429
  272SOL    HW1 1440   0.792   1.314   1.517
  272SOL    HW2 1441   0.747   1.294   1.362
  273SOL     OW 1442   0.668   1.611   0.161
  273SOL    HW1 1443   0.674   1.630   0.063
  273SOL    HW2 1444   0.614   1.528   0.175
  274SOL     OW 1445   1.629   1.729   1.391
  274SOL    HW1 1446   1.678   1.733   1.304
  274SOL    HW2 1447   1.614   1.822   1.425
  275SOL     OW 1448   0.263   0.323   0.714
  275SOL    HW1 1449   0.176   0.364   0.688
  275SOL    HW2 1450   0.263   0.304   0.812
  276SOL     OW 1451   1.186   1.632   0.033
  276SOL    HW1 1452   1.184   1.545   0.082
  276SOL    HW2 1453   1.173   1.615  -0.065
  277SOL     OW 1454   0.826   1.008   1.374
  277SOL    HW1 1455   0.868   0.999   1.283
  277SOL    HW2 1456   0.827   1.104   1.401
  278SOL     OW 1457   0.919   0.909   0.312
  278SOL    HW1 1458   0.981   0.938   0.238
  278SOL    HW2 1459   0.959   0.830   0.359
  279SOL     OW 1460   1.471   1.597   0.039
  279SOL    HW1 1461   1.376   1.626   0.038
  279SOL    HW2 1462   1.519   1.635  -0.040
  280SOL     OW 1463   0.376   1.302   1.492
  280SOL    HW1 1464   0.364   1.384   1.437
  280SOL    HW2 1465   0.301   1.237   1.474
  281SOL     OW 1466   1.600   1.276   1.284
  281SOL    HW1 1467   1.685   1.276   1.337
  281SOL    HW2 1468   1.545   1.356   1.309
  282SOL     OW 1469   1.054   1.104   0.693
  282SOL    HW1 1470   0.983   1.053   0.740
  282SOL    HW2 1471   1.126   1.042   0.663
  283SOL     OW 1472   0.597   1.484   0.480
  283SOL    HW1 1473   0.645   1.432   0.409
  283SOL    HW2 1474   0.537   1.552   0.438
  284SOL     OW 1475   1.722   0.396   1.381
  284SOL    HW1 1476   1.793   0.466   1.385
  284SOL    HW2 1477   1.750   0.323   1.317
  285SOL     OW 1478   0.248   1.345   0.288
  285SOL    HW1 1479   0.156   1.308   0.277
  285SOL    HW2 1480   0.256   1.388   0.378
  286SOL     OW 1481   0.118   1.013   1.704
  286SOL    HW1 1482   0.040   0.993   1.763
  286SOL    HW2 1483   0.202   0.983   1.749
  287SOL     OW 1484   0.674   0.216   1.492
  287SOL    HW1 1485   0.755   0.172   1.453
  287SOL    HW2 1486   0.690   0.233   1.589
  288SOL     OW 1487   0.067   0.373   5.013
  288SOL    HW1 1488  -0.026   0.347   5.041
  288SOL    HW2 1489   0.063   0.420   4.925
  289SOL     OW 1490   1.425   0.860   1.391
  289SOL    HW1 1491   1.366   0.883   1.314
  289SOL    HW2 1492   1.521   0.868   1.363
  290SOL     OW 1493   1.179   1.388   0.137
  290SOL    HW1 1494   1.090   1.344   0.126
  290SOL    HW2 1495   1.216   1.364   0.227
  291SOL     OW 1496   0.620   0.832   1.434
  291SOL    HW1 1497   0.676   0.913   1.418
  291SOL    HW2 1498   0.679   0.752   1.444
  292SOL     OW 1499   1.488   1.778   0.976
  292SOL    HW1 1500   1.512   1.838   0.900
  292SOL    HW2 1501   1.570   1.755   1.028
  293SOL     OW 1502   0.719   0.563   1.705
  293SOL    HW1 1503   0.758   0.630   1.768
  293SOL    HW2 1504   0.745   0.471   1.734
  294SOL     OW 1505   1.468   1.205   1.636
  294SOL    HW1 1506   1.455   1.216   1.734
  294SOL    HW2 1507   1.565   1.215   1.613
  295SOL     OW 1508   0.381   1.741   1.562
  295SOL    HW1 1509   0.293   1.788   1.551
  295SOL    HW2 1510   0.366   1.655   1.612
  296SOL     OW 1511   1.668   0.880   1.257
  296SOL    HW1 1512   1.663   0.790   1.215
  296SOL    HW2 1513   1.661   0.951   1.187
  297SOL     OW 1514   1.218   0.317   0.458
  297SOL    HW1 1515   1.286   0.246   0.439
  297SOL    HW2 1516   1.247   0.369   0.538
  298SOL     OW 1517   0.591   0.740   0.664
  298SOL    HW1 1518   0.631   0.831   0.650
  298SOL    HW2 1519   0.516   0.726   0.599
  299SOL     OW 1520   1.760   0.364   1.651
  299SOL    HW1 1521   1.747   0.375   1.553
  299SOL    HW2 1522   1.687   0.307   1.688
  300SOL     OW 1523   1.747   0.935   1.509
  300SOL    HW1 1524   1.739   1.032   1.530
  300SOL    HW2 1525   1.728   0.919   1.413
  301SOL     OW 1526   0.893   1.366   0.038
  301SOL    HW1 1527   0.834   1.363   0.118
  301SOL    HW2 1528   0.886   1.456  -0.005
  302SOL     OW 1529   0.661   1.793   0.948
  302SOL    HW1 1530   0.643   1.887   0.919
  302SOL    HW2 1531   0.759   1.775   0.943
  303SOL     OW 1532   1.863   1.550   0.859
  303SOL    HW1 1533   1.794   1.566   0.788
  303SOL    HW2 1534   1.821   1.504   0.937
  304SOL     OW 1535   0.222   1.310   1.856
  304SOL    HW1 1536   0.162   1.235   1.828
  304SOL    HW2 1537   0.222   1.317   1.956
  305SOL     OW 1538   0.110   1.241   0.679
  305SOL    HW1 1539   0.050   1.184   0.736
  305SOL    HW2 1540   0.153   1.184   0.609
  306SOL     OW 1541   0.681   1.402   1.631
  306SOL    HW1 1542   0.597   1.353   1.656
  306SOL    HW2 1543   0.676   1.496   1.666
  307SOL     OW 1544   1.807   0.200   1.223
  307SOL    HW1 1545   1.814   0.106   1.255
  307SOL    HW2 1546   1.806   0.201   1.123
  308SOL     OW 1547   0.434   0.430   0.524
  308SOL    HW1 1548   0.468   0.359   0.463
  308SOL    HW2 1549   0.383   0.388   0.599
  309SOL     OW 1550   1.704   1.483   1.094
  309SOL    HW1 1551   1.617   1.459   1.052
  309SOL    HW2 1552   1.728   1.413   1.162
  310SOL     OW 1553   0.324   0.552   1.290
  310SOL    HW1 1554   0.382   0.500   1.352
  310SOL    HW2 1555   0.347   0.527   1.195
  311SOL     OW 1556   0.821   1.581   0.680
  311SOL    HW1 1557   0.821   1.622   0.589
  311SOL    HW2 1558   0.743   1.519   0.688
  312SOL     OW 1559   1.432   0.226   1.112
  312SOL    HW1 1560   1.487   0.153   1.153
  312SOL    HW2 1561   1.379   0.272   1.182
  313SOL     OW 1562   0.775   1.329   0.307
  313SOL    HW1 1563   0.741   1.236   0.321
  313SOL    HW2 1564   0.857   1.344   0.362
  314SOL     OW 1565   0.624   1.561   1.285
  314SOL    HW1 1566   0.624   1.647   1.337
  314SOL    HW2 1567   0.715   1.546   1.246
  315SOL     OW 1568   1.295   0.465   0.679
  315SOL    HW1 1569   1.241   0.549   0.682
  315SOL    HW2 1570   1.300   0.425   0.771
  316SOL     OW 1571   1.599   0.212   0.877
  316SOL    HW1 1572   1.531   0.219   0.949
  316SOL    HW2 1573   1.602   0.296   0.824
  317SOL     OW 1574   0.880   1.654   0.347
  317SOL    HW1 1575   0.807   1.629   0.283
  317SOL    HW2 1576   0.852   1.734   0.400
  318SOL     OW 1577   0.226   0.625   1.981
  318SOL    HW1 1578   0.139   0.613   2.029
  318SOL    HW2 1579   0.216   0.595   1.886
  319SOL     OW 1580   5.008   0.387   2.498
  319SOL    HW1 1581   4.928   0.418   2.549
  319SOL    HW2 1582   4.994   0.293   2.468
  320SOL     OW 1583   0.563   1.286   3.042
  320SOL    HW1 1584   0.473   1.292   2.997
  320SOL    HW2 1585   0.587   1.376   3.079
  321SOL     OW 1586   1.555   1.511   2.569
  321SOL    HW1 1587   1.512   1.493   2.658
  321SOL    HW2 1588   1.485   1.520   2.499
  322SOL     OW 1589   1.133   0.700   2.566
  322SOL    HW1 1590   1.184   0.783   2.546
  322SOL    HW2 1591   1.079   0.713   2.649
  323SOL     OW 1592   1.761   0.610   2.090
  323SOL    HW1 1593   1.744   0.601   1.992
  323SOL    HW2 1594   1.733   0.525   2.136
  324SOL     OW 1595   0.730   1.144   2.881
  324SOL    HW1 1596   0.666   1.180   2.950
  324SOL    HW2 1597   0.781   1.221   2.841
  325SOL     OW 1598   0.864   0.783   3.680
  325SOL    HW1 1599   0.841   0.857   3.742
  325SOL    HW2 1600   0.893   0.821   3.592
  326SOL     OW 1601   0.683   1.008   2.511
  326SOL    HW1 1602   0.754   0.992   2.580
  326SOL    HW2 1603   0.607   1.058   2.552
  327SOL     OW 1604   0.708   1.155   3.676
  327SOL    HW1 1605   0.762   1.235   3.700
  327SOL    HW2 1606   0.621   1.184   3.637
  328SOL     OW 1607   0.331   1.423   2.927
  328SOL    HW1 1608   0.253   1.392   2.871
  328SOL    HW2 1609   0.390   1.481   2.871
  329SOL     OW 1610   1.462   1.497   3.209
  329SOL    HW1 1611   1.510   1.585   3.217
  329SOL    HW2 1612   1.402   1.485   3.288
  330SOL     OW 1613   0.450   0.397   3.338
  330SOL    HW1 1614   0.529   0.338   3.353
  330SOL    HW2 1615   0.366   0.346   3.358
  331SOL     OW 1616   1.613   0.452   2.601
  331SOL    HW1 1617   1.536   0.477   2.543
  331SOL    HW2 1618   1.636   0.529   2.661
  332SOL     OW 1619   0.232   1.711   2.337
  332SOL    HW1 1620   0.253   1.794   2.390
  332SOL    HW2 1621   0.295   1.704   2.260
  333SOL     OW 1622   1.141   1.339   3.557
  333SOL    HW1 1623   1.181   1.338   3.649
  333SOL    HW2 1624   1.081   1.260   3.546
  334SOL     OW 1625   0.231   1.443   2.392
  334SOL    HW1 1626   0.219   1.542   2.402
  334SOL    HW2 1627   0.179   1.396   2.463
  335SOL     OW 1628   0.240   1.088   2.749
  335SOL    HW1 1629   0.254   1.000   2.794
  335SOL    HW2 1630   0.186   1.148   2.809
  336SOL     OW 1631   0.610   1.796   3.294
  336SOL    HW1 1632   0.524   1.770   3.337
  336SOL    HW2 1633   0.635   1.889   3.322
  337SOL     OW 1634   0.599   0.981   1.991
  337SOL    HW1 1635   0.638   1.038   1.920
  337SOL    HW2 1636   0.633   1.010   2.080
  338SOL     OW 1637   1.605   0.156   3.353
  338SOL    HW1 1638   1.603   0.233   3.290
  338SOL    HW2 1639   1.572   0.185   3.443
  339SOL     OW 1640   0.131   0.641   2.426
  339SOL    HW1 1641   0.083   0.555   2.445
  339SOL    HW2 1642   0.115   0.705   2.501
  340SOL     OW 1643   1.842   1.760   2.200
  340SOL    HW1 1644   1.900   1.723   2.272
  340SOL    HW2 1645   1.887   1.838   2.156
  341SOL     OW 1646   0.022   1.586   1.997
  341SOL    HW1 1647   0.007   1.492   2.028
  341SOL    HW2 1648  -0.014   1.649   2.066
  342SOL     OW 1649   1.694   0.924   2.507
  342SOL    HW1 1650   1.773   0.869   2.481
  342SOL    HW2 1651   1.660   0.974   2.428
  343SOL     OW 1652   1.637   1.107   2.298
  343SOL    HW1 1653   1.725   1.102   2.251
  343SOL    HW2 1654   1.642   1.172   2.373
  344SOL     OW 1655   0.133   0.751   3.452
  344SOL    HW1 1656   0.232   0.759   3.456
  344SOL    HW2 1657   0.092   0.842   3.449
  345SOL     OW 1658   0.608   1.384   2.596
  345SOL    HW1 1659   0.563   1.296   2.609
  345SOL    HW2 1660   0.595   1.415   2.502
  346SOL     OW 1661   1.301   1.244   3.284
  346SOL    HW1 1662   1.328   1.166   3.228
  346SOL    HW2 1663   1.348   1.240   3.372
  347SOL     OW 1664   0.819   0.028   2.427
  347SOL    HW1 1665   0.853   0.118   2.398
  347SOL    HW2 1666   0.720   0.023   2.410
  348SOL     OW 1667   1.536   0.993   2.060
  348SOL    HW1 1668   1.463   0.926   2.074
  348SOL    HW2 1669   1.567   1.028   2.148
  349SOL     OW 1670   1.176   1.803   3.466
  349SOL    HW1 1671   1.225   1.856   3.397
  349SOL    HW2 1672   1.192   1.706   3.451
  350SOL     OW 1673   0.322   0.273   3.614
  350SOL    HW1 1674   0.402   0.317   3.656
  350SOL    HW2 1675   0.254   0.255   3.685
  351SOL     OW 1676   1.467   1.417   2.818
  351SOL    HW1 1677   1.394   1.434   2.885
  351SOL    HW2 1678   1.457   1.323   2.783
  352SOL     OW 1679   1.655   1.733   2.440
  352SOL    HW1 1680   1.632   1.708   2.346
  352SOL    HW2 1681   1.628   1.659   2.502
  353SOL     OW 1682   0.597   0.727   2.130
  353SOL    HW1 1683   0.600   0.806   2.068
  353SOL    HW2 1684   0.524   0.740   2.197
  354SOL     OW 1685   1.273   0.347   2.792
  354SOL    HW1 1686   1.198   0.286   2.766
  354SOL    HW2 1687   1.330   0.302   2.861
  355SOL     OW 1688   1.584   1.668   2.170
  355SOL    HW1 1689   1.678   1.702   2.168
  355SOL    HW2 1690   1.552   1.652   2.076
  356SOL     OW 1691   0.793   0.615   3.316
  356SOL    HW1 1692   0.766   0.594   3.410
  356SOL    HW2 1693   0.748   0.551   3.254
  357SOL     OW 1694   1.394   0.475   3.540
  357SOL    HW1 1695   1.391   0.523   3.628
  357SOL    HW2 1696   1.457   0.398   3.547
  358SOL     OW 1697   0.956   0.889   3.439
  358SOL    HW1 1698   1.012   0.813   3.407
  358SOL    HW2 1699   0.921   0.940   3.360
  359SOL     OW 1700   0.993   0.423   3.094
  359SOL    HW1 1701   0.921   0.461   3.151
  359SOL    HW2 1702   0.954   0.362   3.026
  360SOL     OW 1703   1.058   0.695   2.290
  360SOL    HW1 1704   1.070   0.690   2.389
  360SOL    HW2 1705   0.968   0.659   2.265
  361SOL     OW 1706   0.092   0.818   2.636
  361SOL    HW1 1707   0.180   0.804   2.682
  361SOL    HW2 1708   0.052   0.904   2.665
  362SOL     OW 1709   0.134   1.860   3.440
  362SOL    HW1 1710   0.129   1.830   3.536
  362SOL    HW2 1711   0.048   1.838   3.394
  363SOL     OW 1712   0.885   0.356   2.063
  363SOL    HW1 1713   0.932   0.412   1.994
  363SOL    HW2 1714   0.860   0.268   2.022
  364SOL     OW 1715   1.709   0.576   3.688
  364SOL    HW1 1716   1.670   0.655   3.641
  364SOL    HW2 1717   1.740   0.509   3.621
  365SOL     OW 1718   1.373   1.143   2.400
  365SOL    HW1 1719   1.457   1.124   2.350
  365SOL    HW2 1720   1.318   1.211   2.351
  366SOL     OW 1721   0.515   0.217   2.756
  366SOL    HW1 1722   0.548   0.220   2.850
  366SOL    HW2 1723   0.555   0.292   2.704
  367SOL     OW 1724   1.002   1.442   2.331
  367SOL    HW1 1725   0.964   1.520   2.282
  367SOL    HW2 1726   0.995   1.458   2.430
  368SOL     OW 1727   0.366   1.804   2.707
  368SOL    HW1 1728   0.406   1.714   2.726
  368SOL    HW2 1729   0.429   1.876   2.736
  369SOL     OW 1730   1.799   1.069   2.728
  369SOL    HW1 1731   1.747   1.039   2.647
  369SOL    HW2 1732   1.738   1.070   2.808
  370SOL     OW 1733   1.229   1.540   3.381
  370SOL    HW1 1734   1.218   1.467   3.449
  370SOL    HW2 1735   1.168   1.523   3.304
  371SOL     OW 1736   0.359   0.928   2.116
  371SOL    HW1 1737   0.437   0.956   2.060
  371SOL    HW2 1738   0.310   0.853   2.071
  372SOL     OW 1739   1.477   0.744   2.591
  372SOL    HW1 1740   1.466   0.692   2.676
  372SOL    HW2 1741   1.559   0.801   2.597
  373SOL     OW 1742   0.468   1.256   3.589
  373SOL    HW1 1743   0.437   1.261   3.494
  373SOL    HW2 1744   0.388   1.262   3.650
  374SOL     OW 1745   1.137   1.752   2.112
  374SOL    HW1 1746   1.051   1.718   2.152
  374SOL    HW2 1747   1.156   1.702   2.027
  375SOL     OW 1748   0.208   0.280   3.356
  375SOL    HW1 1749   0.121   0.324   3.332
  375SOL    HW2 1750   0.200   0.239   3.447
  376SOL     OW 1751   1.628   1.382   1.950
  376SOL    HW1 1752   1.587   1.472   1.933
  376SOL    HW2 1753   1.560   1.311   1.931
  377SOL     OW 1754   0.474   1.735   2.183
  377SOL    HW1 1755   0.512   1.798   2.252
  377SOL    HW2 1756   0.547   1.704   2.122
  378SOL     OW 1757   1.409   0.115   2.282
  378SOL    HW1 1758   1.406   0.085   2.187
  378SOL    HW2 1759   1.504   0.129   2.309
  379SOL     OW 1760   0.282   1.794   3.093
  379SOL    HW1 1761   0.312   1.721   3.155
  379SOL    HW2 1762   0.239   1.754   3.012
  380SOL     OW 1763   0.931   1.703   2.757
  380SOL    HW1 1764   1.006   1.651   2.798
  380SOL    HW2 1765   0.890   1.650   2.683
  381SOL     OW 1766   0.394   0.689   2.341
  381SOL    HW1 1767   0.421   0.593   2.351
  381SOL    HW2 1768   0.296   0.698   2.359
  382SOL     OW 1769   1.530   0.233   3.597
  382SOL    HW1 1770   1.540   0.253   3.694
  382SOL    HW2 1771   1.455   0.168   3.584
  383SOL     OW 1772   0.635   0.154   1.941
  383SOL    HW1 1773   0.676   0.100   2.015
  383SOL    HW2 1774   0.567   0.098   1.893
  384SOL     OW 1775   0.763   0.274   3.615
  384SOL    HW1 1776   0.849   0.222   3.621
  384SOL    HW2 1777   0.714   0.266   3.702
  385SOL     OW 1778   0.874   1.516   3.054
  385SOL    HW1 1779   0.859   1.481   2.962
  385SOL    HW2 1780   0.949   1.464   3.097
  386SOL     OW 1781   1.345   0.589   3.296
  386SOL    HW1 1782   1.370   0.551   3.385
  386SOL    HW2 1783   1.378   0.683   3.290
  387SOL     OW 1784   0.815   1.396   2.797
  387SOL    HW1 1785   0.905   1.385   2.757
  387SOL    HW2 1786   0.746   1.396   2.725
  388SOL     OW 1787   0.920   0.505   2.762
  388SOL    HW1 1788   0.893   0.500   2.666
  388SOL    HW2 1789   0.970   0.422   2.787
  389SOL     OW 1790   0.554   0.063   2.362
  389SOL    HW1 1791   0.471   0.066   2.418
  389SOL    HW2 1792   0.552   0.139   2.297
  390SOL     OW 1793   1.431   1.198   1.906
  390SOL    HW1 1794   1.464   1.117   1.955
  390SOL    HW2 1795   1.339   1.221   1.938
  391SOL     OW 1796   0.384   0.011   2.009
  391SOL    HW1 1797   0.340   0.101   2.001
  391SOL    HW2 1798   0.354  -0.033   2.094
  392SOL     OW 1799   0.928   0.262   2.344
  392SOL    HW1 1800   0.893   0.300   2.258
  392SOL    HW2 1801   1.028   0.266   2.344
  393SOL     OW 1802   1.079   0.684   3.323
  393SOL    HW1 1803   0.997   0.627   3.317
  393SOL    HW2 1804   1.160   0.627   3.310
  394SOL     OW 1805   1.233   1.565   2.650
  394SOL    HW1 1806   1.242   1.641   2.585
  394SOL    HW2 1807   1.294   1.580   2.728
  395SOL     OW 1808   0.461   1.146   2.597
  395SOL    HW1 1809   0.388   1.127   2.663
  395SOL    HW2 1810   0.427   1.129   2.504
  396SOL     OW 1811   1.269   1.794   2.469
  396SOL    HW1 1812   1.315   1.858   2.408
  396SOL    HW2 1813   1.194   1.840   2.516
  397SOL     OW 1814   1.026   0.545   1.884
  397SOL    HW1 1815   0.980   0.630   1.860
  397SOL    HW2 1816   1.092   0.562   1.957
  398SOL     OW 1817   0.075   0.561   3.260
  398SOL    HW1 1818   0.164   0.550   3.218
  398SOL    HW2 1819   0.078   0.636   3.326
  399SOL     OW 1820   0.559   0.223   3.032
  399SOL    HW1 1821   0.597   0.146   3.083
  399SOL    HW2 1822   0.466   0.241   3.063
  400SOL     OW 1823   0.863   0.470   2.504
  400SOL    HW1 1824   0.818   0.530   2.438
  400SOL    HW2 1825   0.886   0.383   2.461
  401SOL     OW 1826   0.984   0.058   2.649
  401SOL    HW1 1827   0.921   0.066   2.572
  401SOL    HW2 1828   1.033  -0.029   2.644
  402SOL     OW 1829   1.441   1.162   2.720
  402SOL    HW1 1830   1.365   1.096   2.720
  402SOL    HW2 1831   1.468   1.180   2.625
  403SOL     OW 1832   1.468   0.604   2.843
  403SOL    HW1 1833   1.413   0.520   2.844
  403SOL    HW2 1834   1.533   0.601   2.919
  404SOL     OW 1835   1.831   0.812   2.266
  404SOL    HW1 1836   1.898   0.759   2.319
  404SOL    HW2 1837   1.809   0.764   2.182
  405SOL     OW 1838   0.490   1.413   2.024
  405SOL    HW1 1839   0.407   1.388   2.073
  405SOL    HW2 1840   0.475   1.400   1.925
  406SOL     OW 1841   1.666   1.268   2.509
  406SOL    HW1 1842   1.765   1.268   2.521
  406SOL    HW2 1843   1.630   1.359   2.530
  407SOL     OW 1844   1.391   0.570   1.932
  407SOL    HW1 1845   1.328   0.552   2.008
  407SOL    HW2 1846   1.484   0.545   1.959
  408SOL     OW 1847   0.523   0.268   2.178
  408SOL    HW1 1848   0.566   0.212   2.107
  408SOL    HW2 1849   0.501   0.358   2.140
  409SOL     OW 1850   1.764   1.231   3.435
  409SOL    HW1 1851   1.838   1.179   3.477
  409SOL    HW2 1852   1.776   1.328   3.455
  410SOL     OW 1853   1.070   1.382   3.212
  410SOL    HW1 1854   0.985   1.343   3.247
  410SOL    HW2 1855   1.148   1.329   3.245
  411SOL     OW 1856   1.611   1.627   3.513
  411SOL    HW1 1857   1.600   1.663   3.420
  411SOL    HW2 1858   1.697   1.578   3.520
  412SOL     OW 1859   1.632   1.102   2.943
  412SOL    HW1 1860   1.629   1.170   3.017
  412SOL    HW2 1861   1.551   1.114   2.885
  413SOL     OW 1862   0.978   1.123   3.574
  413SOL    HW1 1863   0.883   1.134   3.604
  413SOL    HW2 1864   0.990   1.034   3.530
  414SOL     OW 1865   0.718   1.052   2.233
  414SOL    HW1 1866   0.686   1.048   2.328
  414SOL    HW2 1867   0.801   0.997   2.223
  415SOL     OW 1868   0.422   0.811   3.108
  415SOL    HW1 1869   0.491   0.823   3.180
  415SOL    HW2 1870   0.370   0.727   3.126
  416SOL     OW 1871   1.268   0.383   3.134
  416SOL    HW1 1872   1.305   0.460   3.187
  416SOL    HW2 1873   1.173   0.402   3.110
  417SOL     OW 1874   0.085   1.559   3.140
  417SOL    HW1 1875   0.038   1.632   3.189
  417SOL    HW2 1876   0.171   1.537   3.186
  418SOL     OW 1877   0.358   1.103   2.348
  418SOL    HW1 1878   0.356   1.183   2.289
  418SOL    HW2 1879   0.357   1.020   2.293
  419SOL     OW 1880   0.551   0.543   2.725
  419SOL    HW1 1881   0.565   0.600   2.645
  419SOL    HW2 1882   0.616   0.569   2.797
  420SOL     OW 1883   1.247   1.353   2.252
  420SOL    HW1 1884   1.308   1.426   2.284
  420SOL    HW2 1885   1.154   1.371   2.284
  421SOL     OW 1886   1.277   1.451   3.008
  421SOL    HW1 1887   1.337   1.461   3.088
  421SOL    HW2 1888   1.196   1.398   3.034
  422SOL     OW 1889   1.583   0.624   2.341
  422SOL    HW1 1890   1.531   0.681   2.405
  422SOL    HW2 1891   1.635   0.682   2.278
  423SOL     OW 1892   0.357   1.511   3.182
  423SOL    HW1 1893   0.337   1.478   3.090
  423SOL    HW2 1894   0.454   1.535   3.188
  424SOL     OW 1895   0.413   0.741   3.464
  424SOL    HW1 1896   0.473   0.791   3.401
  424SOL    HW2 1897   0.452   0.651   3.484
  425SOL     OW 1898   1.602   0.782   3.544
  425SOL    HW1 1899   1.510   0.821   3.542
  425SOL    HW2 1900   1.656   0.824   3.471
  426SOL     OW 1901   0.992   0.125   3.626
  426SOL    HW1 1902   1.053   0.190   3.582
  426SOL    HW2 1903   1.018   0.032   3.600
  427SOL     OW 1904   0.490   0.044   3.595
  427SOL    HW1 1905   0.468   0.017   3.501
  427SOL    HW2 1906   0.421   0.108   3.628
  428SOL     OW 1907   0.585   0.873   2.895
  428SOL    HW1 1908   0.616   0.968   2.888
  428SOL    HW2 1909   0.523   0.864   2.973
  429SOL     OW 1910   1.353   0.851   2.915
  429SOL    HW1 1911   1.285   0.865   2.843
  429SOL    HW2 1912   1.399   0.764   2.900
  430SOL     OW 1913   1.205   0.526   2.131
  430SOL    HW1 1914   1.215   0.444   2.187
  430SOL    HW2 1915   1.161   0.598   2.184
  431SOL     OW 1916   0.721   0.631   2.919
  431SOL    HW1 1917   0.797   0.610   2.858
  431SOL    HW2 1918   0.690   0.724   2.903
  432SOL     OW 1919   1.725   0.963   3.714
  432SOL    HW1 1920   1.687   0.897   3.650
  432SOL    HW2 1921   1.664   0.972   3.793
  433SOL     OW 1922   0.314   0.075   2.483
  433SOL    HW1 1923   0.297   0.169   2.512
  433SOL    HW2 1924   0.347   0.022   2.562
  434SOL     OW 1925   1.616   0.376   2.232
  434SOL    HW1 1926   1.645   0.307   2.297
  434SOL    HW2 1927   1.592   0.460   2.280
  435SOL     OW 1928   1.012   0.748   2.817
  435SOL    HW1 1929   1.038   0.760   2.913
  435SOL    HW2 1930   0.982   0.653   2.802
  436SOL     OW 1931   0.985   1.562   3.575
  436SOL    HW1 1932   0.959   1.608   3.490
  436SOL    HW2 1933   1.030   1.475   3.555
  437SOL     OW 1934   1.857   1.507   3.467
  437SOL    HW1 1935   1.870   1.528   3.370
  437SOL    HW2 1936   1.942   1.525   3.516
  438SOL     OW 1937   0.352   0.915   3.665
  438SOL    HW1 1938   0.434   0.941   3.717
  438SOL    HW2 1939   0.377   0.849   3.595
  439SOL     OW 1940   1.534   0.274   1.996
  439SOL    HW1 1941   1.472   0.198   2.018
  439SOL    HW2 1942   1.566   0.317   2.080
  440SOL     OW 1943   1.307   0.830   1.902
  440SOL    HW1 1944   1.341   0.736   1.899
  440SOL    HW2 1945   1.320   0.872   1.812
  441SOL     OW 1946   1.058   1.347   2.699
  441SOL    HW1 1947   1.067   1.262   2.647
  441SOL    HW2 1948   1.131   1.410   2.673
  442SOL     OW 1949   0.315   0.814   2.804
  442SOL    HW1 1950   0.413   0.835   2.800
  442SOL    HW2 1951   0.301   0.729   2.854
  443SOL     OW 1952   0.333   0.505   2.879
  443SOL    HW1 1953   0.286   0.424   2.844
  443SOL    HW2 1954   0.412   0.525   2.821
  444SOL     OW 1955   1.133   0.392   3.553
  444SOL    HW1 1956   1.084   0.447   3.620
  444SOL    HW2 1957   1.227   0.425   3.546
  445SOL     OW 1958   1.172   0.217   3.359
  445SOL    HW1 1959   1.152   0.290   3.425
  445SOL    HW2 1960   1.203   0.259   3.273
  446SOL     OW 1961   0.107   1.775   2.785
  446SOL    HW1 1962   0.045   1.749   2.711
  446SOL    HW2 1963   0.198   1.790   2.748
  447SOL     OW 1964   0.500   1.572   2.770
  447SOL    HW1 1965   0.569   1.639   2.797
  447SOL    HW2 1966   0.542   1.503   2.710
  448SOL     OW 1967   0.047   0.534   2.970
  448SOL    HW1 1968   0.144   0.544   2.949
  448SOL    HW2 1969   0.033   0.548   3.068
  449SOL     OW 1970   0.161   0.518   3.585
  449SOL    HW1 1971   0.235   0.468   3.539
  449SOL    HW2 1972   0.142   0.603   3.536
  450SOL     OW 1973   1.376   0.939   3.518
  450SOL    HW1 1974   1.396   1.037   3.525
  450SOL    HW2 1975   1.375   0.912   3.421
  451SOL     OW 1976   0.817   0.577   2.217
  451SOL    HW1 1977   0.829   0.496   2.160
  451SOL    HW2 1978   0.735   0.627   2.188
  452SOL     OW 1979   1.645   0.604   3.050
  452SOL    HW1 1980   1.628   0.544   3.127
  452SOL    HW2 1981   1.736   0.584   3.011
  453SOL     OW 1982   0.283   1.558   3.606
  453SOL    HW1 1983   0.224   1.625   3.652
  453SOL    HW2 1984   0.256   1.465   3.634
  454SOL     OW 1985   0.700   0.454   3.121
  454SOL    HW1 1986   0.643   0.376   3.093
  454SOL    HW2 1987   0.699   0.522   3.048
  455SOL     OW 1988   0.920   1.677   3.335
  455SOL    HW1 1989   0.899   1.643   3.243
  455SOL    HW2 1990   0.966   1.765   3.328
  456SOL     OW 1991   0.463   0.500   2.052
  456SOL    HW1 1992   0.528   0.573   2.074
  456SOL    HW2 1993   0.372   0.539   2.039
  457SOL     OW 1994   1.312   0.841   2.170
  457SOL    HW1 1995   1.231   0.813   2.221
  457SOL    HW2 1996   1.294   0.837   2.072
  458SOL     OW 1997   1.757   1.742   3.004
  458SOL    HW1 1998   1.824   1.780   2.940
  458SOL    HW2 1999   1.741   1.646   2.982
  459SOL     OW 2000   1.263   1.732   2.988
  459SOL    HW1 2001   1.342   1.750   2.930
  459SOL    HW2 2002   1.251   1.634   2.998
  460SOL     OW 2003   0.072   1.282   2.860
  460SOL    HW1 2004   0.071   1.301   2.958
  460SOL    HW2 2005  -0.022   1.274   2.827
  461SOL     OW 2006   0.682   1.667   3.587
  461SOL    HW1 2007   0.620   1.746   3.589
  461SOL    HW2 2008   0.744   1.676   3.508
  462SOL     OW 2009   1.716   0.141   2.368
  462SOL    HW1 2010   1.793   0.117   2.309
  462SOL    HW2 2011   1.725   0.092   2.455
  463SOL     OW 2012   1.393   1.569   2.345
  463SOL    HW1 2013   1.456   1.600   2.274
  463SOL    HW2 2014   1.339   1.647   2.377
  464SOL     OW 2015   0.128   1.789   3.701
  464SOL    HW1 2016   0.078   1.717   3.750
  464SOL    HW2 2017   0.200   1.826   3.760
  465SOL     OW 2018   1.280   0.926   2.533
  465SOL    HW1 2019   1.354   0.859   2.542
  465SOL    HW2 2020   1.311   1.003   2.478
  466SOL     OW 2021   0.828   1.282   3.292
  466SOL    HW1 2022   0.792   1.319   3.378
  466SOL    HW2 2023   0.755   1.280   3.224
  467SOL     OW 2024   0.672   1.614   2.016
  467SOL    HW1 2025   0.684   1.631   1.918
  467SOL    HW2 2026   0.615   1.533   2.029
  468SOL     OW 2027   1.626   1.730   3.250
  468SOL    HW1 2028   1.678   1.733   3.165
  468SOL    HW2 2029   1.613   1.823   3.284
  469SOL     OW 2030   1.836   0.195   2.803
  469SOL    HW1 2031   1.871   0.107   2.770
  469SOL    HW2 2032   1.740   0.205   2.775
  470SOL     OW 2033   0.263   0.323   2.575
  470SOL    HW1 2034   0.176   0.364   2.549
  470SOL    HW2 2035   0.260   0.299   2.672
  471SOL     OW 2036   1.209   1.617   1.886
  471SOL    HW1 2037   1.201   1.524   1.920
  471SOL    HW2 2038   1.142   1.632   1.813
  472SOL     OW 2039   1.493   1.626   1.902
  472SOL    HW1 2040   1.394   1.621   1.894
  472SOL    HW2 2041   1.534   1.632   1.811
  473SOL     OW 2042   0.359   1.290   3.349
  473SOL    HW1 2043   0.360   1.376   3.299
  473SOL    HW2 2044   0.276   1.238   3.327
  474SOL     OW 2045   1.633   1.290   3.152
  474SOL    HW1 2046   1.678   1.269   3.239
  474SOL    HW2 2047   1.560   1.358   3.168
  475SOL     OW 2048   1.052   1.104   2.569
  475SOL    HW1 2049   0.977   1.055   2.613
  475SOL    HW2 2050   1.118   1.038   2.534
  476SOL     OW 2051   0.599   1.486   2.343
  476SOL    HW1 2052   0.647   1.434   2.273
  476SOL    HW2 2053   0.534   1.548   2.300
  477SOL     OW 2054   1.720   0.401   3.243
  477SOL    HW1 2055   1.793   0.469   3.249
  477SOL    HW2 2056   1.746   0.330   3.178
  478SOL     OW 2057   0.244   1.357   2.141
  478SOL    HW1 2058   0.145   1.343   2.140
  478SOL    HW2 2059   0.271   1.396   2.229
  479SOL     OW 2060   0.113   1.026   3.595
  479SOL    HW1 2061   0.041   0.974   3.640
  479SOL    HW2 2062   0.203   0.991   3.623
  480SOL     OW 2063   0.670   0.216   3.358
  480SOL    HW1 2064   0.757   0.207   3.311
  480SOL    HW2 2065   0.687   0.227   3.456
  481SOL     OW 2066   0.078   0.337   1.885
  481SOL    HW1 2067  -0.020   0.321   1.872
  481SOL    HW2 2068   0.107   0.416   1.831
  482SOL     OW 2069   1.424   0.865   3.254
  482SOL    HW1 2070   1.366   0.880   3.174
  482SOL    HW2 2071   1.520   0.869   3.227
  483SOL     OW 2072   1.179   1.365   1.977
  483SOL    HW1 2073   1.083   1.338   1.971
  483SOL    HW2 2074   1.210   1.359   2.072
  484SOL     OW 2075   0.617   0.833   3.296
  484SOL    HW1 2076   0.663   0.922   3.290
  484SOL    HW2 2077   0.685   0.760   3.301
  485SOL     OW 2078   1.493   1.781   2.841
  485SOL    HW1 2079   1.516   1.838   2.763
  485SOL    HW2 2080   1.577   1.759   2.892
  486SOL     OW 2081   0.720   0.564   3.569
  486SOL    HW1 2082   0.758   0.633   3.631
  486SOL    HW2 2083   0.750   0.473   3.598
  487SOL     OW 2084   1.469   1.205   3.499
  487SOL    HW1 2085   1.453   1.215   3.597
  487SOL    HW2 2086   1.567   1.215   3.481
  488SOL     OW 2087   0.381   1.737   3.425
  488SOL    HW1 2088   0.295   1.787   3.410
  488SOL    HW2 2089   0.362   1.654   3.478
  489SOL     OW 2090   1.665   0.881   3.119
  489SOL    HW1 2091   1.664   0.788   3.081
  489SOL    HW2 2092   1.660   0.947   3.044
  490SOL     OW 2093   1.221   0.318   2.323
  490SOL    HW1 2094   1.286   0.244   2.310
  490SOL    HW2 2095   1.247   0.373   2.402
  491SOL     OW 2096   0.590   0.741   2.528
  491SOL    HW1 2097   0.630   0.831   2.516
  491SOL    HW2 2098   0.517   0.727   2.462
  492SOL     OW 2099   1.760   0.364   3.512
  492SOL    HW1 2100   1.745   0.376   3.414
  492SOL    HW2 2101   1.687   0.307   3.550
  493SOL     OW 2102   1.746   0.934   3.372
  493SOL    HW1 2103   1.746   1.033   3.388
  493SOL    HW2 2104   1.728   0.917   3.275
  494SOL     OW 2105   0.872   1.369   1.899
  494SOL    HW1 2106   0.821   1.394   1.982
  494SOL    HW2 2107   0.884   1.450   1.842
  495SOL     OW 2108   0.661   1.793   2.810
  495SOL    HW1 2109   0.642   1.887   2.781
  495SOL    HW2 2110   0.759   1.776   2.806
  496SOL     OW 2111   0.865   0.966   2.713
  496SOL    HW1 2112   0.910   0.887   2.754
  496SOL    HW2 2113   0.820   1.020   2.785
  497SOL     OW 2114   1.855   1.550   2.702
  497SOL    HW1 2115   1.772   1.546   2.647
  497SOL    HW2 2116   1.847   1.488   2.780
  498SOL     OW 2117   0.235   1.303   3.713
  498SOL    HW1 2118   0.164   1.240   3.682
  498SOL    HW2 2119   0.220   1.324   3.810
  499SOL     OW 2120   0.101   1.244   2.525
  499SOL    HW1 2121   0.093   1.195   2.611
  499SOL    HW2 2122   0.157   1.191   2.461
  500SOL     OW 2123   0.681   1.401   3.492
  500SOL    HW1 2124   0.599   1.352   3.521
  500SOL    HW2 2125   0.676   1.495   3.526
  501SOL     OW 2126   1.801   0.212   3.079
  501SOL    HW1 2127   1.807   0.116   3.107
  501SOL    HW2 2128   1.819   0.218   2.981
  502SOL     OW 2129   0.438   0.429   2.387
  502SOL    HW1 2130   0.466   0.357   2.324
  502SOL    HW2 2131   0.383   0.390   2.461
  503SOL     OW 2132   1.700   1.485   2.956
  503SOL    HW1 2133   1.616   1.465   2.906
  503SOL    HW2 2134   1.705   1.428   3.038
  504SOL     OW 2135   0.324   0.551   3.151
  504SOL    HW1 2136   0.381   0.499   3.214
  504SOL    HW2 2137   0.346   0.526   3.057
  505SOL     OW 2138   0.823   1.579   2.540
  505SOL    HW1 2139   0.821   1.626   2.452
  505SOL    HW2 2140   0.744   1.519   2.548
  506SOL     OW 2141   1.431   0.227   2.973
  506SOL    HW1 2142   1.487   0.155   3.014
  506SOL    HW2 2143   1.379   0.274   3.045
  507SOL     OW 2144   0.771   1.333   2.177
  507SOL    HW1 2145   0.739   1.238   2.181
  507SOL    HW2 2146   0.857   1.341   2.227
  508SOL     OW 2147   0.624   1.562   3.149
  508SOL    HW1 2148   0.623   1.648   3.200
  508SOL    HW2 2149   0.714   1.548   3.108
  509SOL     OW 2150   1.383   0.040   2.018
  509SOL    HW1 2151   1.417  -0.036   1.963
  509SOL    HW2 2152   1.285   0.028   2.035
  510SOL     OW 2153   1.296   0.464   2.546
  510SOL    HW1 2154   1.241   0.547   2.548
  510SOL    HW2 2155   1.295   0.421   2.636
  511SOL     OW 2156   1.580   0.212   2.730
  511SOL    HW1 2157   1.516   0.219   2.807
  511SOL    HW2 2158   1.580   0.299   2.680
  512SOL     OW 2159   0.881   1.652   2.205
  512SOL    HW1 2160   0.810   1.630   2.139
  512SOL    HW2 2161   0.853   1.731   2.259
  513SOL     OW 2162   0.226   0.618   3.844
  513SOL    HW1 2163   0.139   0.613   3.893
  513SOL    HW2 2164   0.212   0.591   3.749
  514SOL     OW 2165   0.216   0.271   4.724
  514SOL    HW1 2166   0.248   0.240   4.813
  514SOL    HW2 2167   0.122   0.240   4.709
  515SOL     OW 2168   5.008   0.389   4.361
  515SOL    HW1 2169   4.927   0.419   4.411
  515SOL    HW2 2170   4.996   0.294   4.332
  516SOL     OW 2171   0.552   1.256   4.893
  516SOL    HW1 2172   0.469   1.289   4.848
  516SOL    HW2 2173   0.604   1.333   4.929
  517SOL     OW 2174   1.561   1.514   4.431
  517SOL    HW1 2175   1.519   1.493   4.519
  517SOL    HW2 2176   1.489   1.524   4.362
  518SOL     OW 2177   1.132   0.701   4.428
  518SOL    HW1 2178   1.182   0.785   4.409
  518SOL    HW2 2179   1.077   0.713   4.511
  519SOL     OW 2180   1.745   0.609   3.958
  519SOL    HW1 2181   1.739   0.601   3.858
  519SOL    HW2 2182   1.732   0.519   4.000
  520SOL     OW 2183   0.755   1.145   4.754
  520SOL    HW1 2184   0.678   1.169   4.814
  520SOL    HW2 2185   0.791   1.228   4.712
  521SOL     OW 2186   0.684   1.007   4.377
  521SOL    HW1 2187   0.754   0.990   4.446
  521SOL    HW2 2188   0.608   1.057   4.418
  522SOL     OW 2189   0.351   1.407   4.778
  522SOL    HW1 2190   0.262   1.384   4.740
  522SOL    HW2 2191   0.397   1.474   4.720
  523SOL     OW 2192   1.613   0.451   4.461
  523SOL    HW1 2193   1.533   0.474   4.406
  523SOL    HW2 2194   1.635   0.528   4.521
  524SOL     OW 2195   0.232   1.710   4.202
  524SOL    HW1 2196   0.254   1.793   4.253
  524SOL    HW2 2197   0.294   1.702   4.123
  525SOL     OW 2198   0.230   1.442   4.255
  525SOL    HW1 2199   0.222   1.541   4.264
  525SOL    HW2 2200   0.182   1.397   4.331
  526SOL     OW 2201   0.242   1.083   4.615
  526SOL    HW1 2202   0.243   0.991   4.656
  526SOL    HW2 2203   0.189   1.144   4.673
  527SOL     OW 2204   0.594   0.982   3.855
  527SOL    HW1 2205   0.635   1.038   3.784
  527SOL    HW2 2206   0.627   1.012   3.945
  528SOL     OW 2207   0.130   0.637   4.280
  528SOL    HW1 2208   0.083   0.552   4.306
  528SOL    HW2 2209   0.116   0.705   4.352
  529SOL     OW 2210   0.032   1.589   3.849
  529SOL    HW1 2211   0.023   1.490   3.858
  529SOL    HW2 2212  -0.013   1.634   3.926
  530SOL     OW 2213   1.692   0.918   4.366
  530SOL    HW1 2214   1.780   0.871   4.354
  530SOL    HW2 2215   1.671   0.970   4.284
  531SOL     OW 2216   1.645   1.106   4.160
  531SOL    HW1 2217   1.724   1.126   4.102
  531SOL    HW2 2218   1.644   1.168   4.238
  532SOL     OW 2219   0.608   1.384   4.455
  532SOL    HW1 2220   0.562   1.297   4.470
  532SOL    HW2 2221   0.594   1.414   4.361
  533SOL     OW 2222   0.810   0.045   4.278
  533SOL    HW1 2223   0.846   0.094   4.198
  533SOL    HW2 2224   0.714   0.024   4.264
  534SOL     OW 2225   1.534   0.995   3.923
  534SOL    HW1 2226   1.461   0.928   3.937
  534SOL    HW2 2227   1.568   1.026   4.012
  535SOL     OW 2228   1.473   1.414   4.673
  535SOL    HW1 2229   1.402   1.433   4.740
  535SOL    HW2 2230   1.464   1.320   4.640
  536SOL     OW 2231   1.662   1.730   4.289
  536SOL    HW1 2232   1.623   1.701   4.202
  536SOL    HW2 2233   1.642   1.662   4.359
  537SOL     OW 2234   0.599   0.731   3.994
  537SOL    HW1 2235   0.599   0.810   3.933
  537SOL    HW2 2236   0.527   0.742   4.063
  538SOL     OW 2237   1.281   0.350   4.660
  538SOL    HW1 2238   1.186   0.320   4.660
  538SOL    HW2 2239   1.333   0.296   4.727
  539SOL     OW 2240   1.582   1.664   4.025
  539SOL    HW1 2241   1.662   1.723   4.015
  539SOL    HW2 2242   1.546   1.641   3.935
  540SOL     OW 2243   1.057   0.696   4.153
  540SOL    HW1 2244   1.071   0.688   4.251
  540SOL    HW2 2245   0.969   0.656   4.128
  541SOL     OW 2246   0.102   0.822   4.477
  541SOL    HW1 2247   0.188   0.799   4.520
  541SOL    HW2 2248   0.064   0.904   4.520
  542SOL     OW 2249   0.083   1.786   0.276
  542SOL    HW1 2250   0.119   1.766   0.367
  542SOL    HW2 2251   0.007   1.850   0.283
  543SOL     OW 2252   0.876   0.362   3.904
  543SOL    HW1 2253   0.932   0.420   3.846
  543SOL    HW2 2254   0.904   0.267   3.894
  544SOL     OW 2255   1.377   1.148   4.268
  544SOL    HW1 2256   1.458   1.123   4.214
  544SOL    HW2 2257   1.324   1.216   4.217
  545SOL     OW 2258   0.539   0.206   4.619
  545SOL    HW1 2259   0.551   0.227   4.717
  545SOL    HW2 2260   0.557   0.289   4.566
  546SOL     OW 2261   1.004   1.444   4.194
  546SOL    HW1 2262   0.963   1.521   4.144
  546SOL    HW2 2263   0.995   1.460   4.293
  547SOL     OW 2264   0.361   1.801   4.574
  547SOL    HW1 2265   0.405   1.712   4.589
  547SOL    HW2 2266   0.425   1.874   4.598
  548SOL     OW 2267   1.795   1.059   4.591
  548SOL    HW1 2268   1.741   1.035   4.510
  548SOL    HW2 2269   1.734   1.066   4.670
  549SOL     OW 2270   0.347   0.941   3.976
  549SOL    HW1 2271   0.427   0.967   3.922
  549SOL    HW2 2272   0.302   0.862   3.933
  550SOL     OW 2273   1.474   0.747   4.453
  550SOL    HW1 2274   1.466   0.690   4.534
  550SOL    HW2 2275   1.559   0.800   4.458
  551SOL     OW 2276   1.137   1.743   3.970
  551SOL    HW1 2277   1.052   1.710   4.010
  551SOL    HW2 2278   1.157   1.693   3.886
  552SOL     OW 2279   1.626   1.381   3.810
  552SOL    HW1 2280   1.587   1.471   3.793
  552SOL    HW2 2281   1.557   1.311   3.793
  553SOL     OW 2282   0.479   1.727   4.054
  553SOL    HW1 2283   0.515   1.796   4.117
  553SOL    HW2 2284   0.550   1.703   3.987
  554SOL     OW 2285   1.414   0.114   4.149
  554SOL    HW1 2286   1.398   0.090   4.053
  554SOL    HW2 2287   1.511   0.128   4.164
  555SOL     OW 2288   0.246   1.768   4.907
  555SOL    HW1 2289   0.292   1.775   4.995
  555SOL    HW2 2290   0.271   1.681   4.863
  556SOL     OW 2291   0.939   1.695   4.621
  556SOL    HW1 2292   1.020   1.641   4.645
  556SOL    HW2 2293   0.888   1.648   4.548
  557SOL     OW 2294   0.394   0.690   4.201
  557SOL    HW1 2295   0.420   0.594   4.210
  557SOL    HW2 2296   0.296   0.700   4.218
  558SOL     OW 2297   0.630   0.132   3.826
  558SOL    HW1 2298   0.689   0.061   3.866
  558SOL    HW2 2299   0.570   0.091   3.758
  559SOL     OW 2300   0.807   1.391   4.651
  559SOL    HW1 2301   0.899   1.386   4.613
  559SOL    HW2 2302   0.740   1.388   4.577
  560SOL     OW 2303   0.928   0.513   4.626
  560SOL    HW1 2304   0.903   0.502   4.530
  560SOL    HW2 2305   0.961   0.425   4.662
  561SOL     OW 2306   0.543   0.059   4.213
  561SOL    HW1 2307   0.468   0.066   4.278
  561SOL    HW2 2308   0.547   0.143   4.158
  562SOL     OW 2309   1.428   1.198   3.767
  562SOL    HW1 2310   1.461   1.118   3.817
  562SOL    HW2 2311   1.337   1.223   3.800
  563SOL     OW 2312   0.338   0.002   3.869
  563SOL    HW1 2313   0.326   0.101   3.882
  563SOL    HW2 2314   0.379  -0.037   3.951
  564SOL     OW 2315   1.223   1.573   4.522
  564SOL    HW1 2316   1.241   1.640   4.450
  564SOL    HW2 2317   1.296   1.576   4.590
  565SOL     OW 2318   0.464   1.148   4.466
  565SOL    HW1 2319   0.390   1.126   4.529
  565SOL    HW2 2320   0.435   1.131   4.372
  566SOL     OW 2321   1.268   1.793   4.332
  566SOL    HW1 2322   1.321   1.850   4.269
  566SOL    HW2 2323   1.202   1.850   4.381
  567SOL     OW 2324   1.025   0.548   3.750
  567SOL    HW1 2325   0.982   0.635   3.726
  567SOL    HW2 2326   1.092   0.563   3.823
  568SOL     OW 2327   0.867   0.466   4.363
  568SOL    HW1 2328   0.821   0.524   4.296
  568SOL    HW2 2329   0.895   0.380   4.320
  569SOL     OW 2330   0.972   0.056   4.497
  569SOL    HW1 2331   0.910   0.062   4.419
  569SOL    HW2 2332   1.024  -0.030   4.491
  570SOL     OW 2333   1.437   1.162   4.577
  570SOL    HW1 2334   1.367   1.091   4.582
  570SOL    HW2 2335   1.462   1.178   4.481
  571SOL     OW 2336   1.469   0.599   4.703
  571SOL    HW1 2337   1.413   0.515   4.704
  571SOL    HW2 2338   1.533   0.597   4.780
  572SOL     OW 2339   0.493   1.412   3.884
  572SOL    HW1 2340   0.409   1.392   3.934
  572SOL    HW2 2341   0.477   1.398   3.786
  573SOL     OW 2342   1.667   1.269   4.370
  573SOL    HW1 2343   1.765   1.267   4.385
  573SOL    HW2 2344   1.631   1.360   4.393
  574SOL     OW 2345   1.392   0.571   3.794
  574SOL    HW1 2346   1.329   0.553   3.869
  574SOL    HW2 2347   1.485   0.547   3.822
  575SOL     OW 2348   0.541   0.273   4.046
  575SOL    HW1 2349   0.569   0.214   3.971
  575SOL    HW2 2350   0.520   0.364   4.010
  576SOL     OW 2351   1.115   1.229   4.817
  576SOL    HW1 2352   1.034   1.230   4.876
  576SOL    HW2 2353   1.090   1.255   4.724
  577SOL     OW 2354   1.630   1.106   4.801
  577SOL    HW1 2355   1.622   1.163   4.883
  577SOL    HW2 2356   1.544   1.110   4.750
  578SOL     OW 2357   0.707   1.055   4.097
  578SOL    HW1 2358   0.675   1.051   4.192
  578SOL    HW2 2359   0.790   1.000   4.088
  579SOL     OW 2360   0.429   0.809  -0.028
  579SOL    HW1 2361   0.497   0.837   0.040
  579SOL    HW2 2362   0.363   0.747   0.014
  580SOL     OW 2363   0.388   1.107   4.211
  580SOL    HW1 2364   0.371   1.188   4.155
  580SOL    HW2 2365   0.373   1.024   4.157
  581SOL     OW 2366   0.550   0.540   4.589
  581SOL    HW1 2367   0.565   0.597   4.508
  581SOL    HW2 2368   0.615   0.566   4.661
  582SOL     OW 2369   1.252   1.364   4.117
  582SOL    HW1 2370   1.312   1.437   4.150
  582SOL    HW2 2371   1.159   1.381   4.148
  583SOL     OW 2372   1.283   1.438   4.855
  583SOL    HW1 2373   1.323   1.438   4.946
  583SOL    HW2 2374   1.222   1.359   4.846
  584SOL     OW 2375   1.583   0.620   4.202
  584SOL    HW1 2376   1.536   0.687   4.260
  584SOL    HW2 2377   1.632   0.668   4.130
  585SOL     OW 2378   0.586   0.873   4.754
  585SOL    HW1 2379   0.614   0.969   4.752
  585SOL    HW2 2380   0.524   0.858   4.831
  586SOL     OW 2381   1.353   0.845   4.734
  586SOL    HW1 2382   1.274   0.837   4.674
  586SOL    HW2 2383   1.400   0.757   4.738
  587SOL     OW 2384   1.202   0.532   3.988
  587SOL    HW1 2385   1.224   0.454   4.047
  587SOL    HW2 2386   1.156   0.602   4.043
  588SOL     OW 2387   0.722   0.630   4.778
  588SOL    HW1 2388   0.800   0.607   4.719
  588SOL    HW2 2389   0.694   0.724   4.761
  589SOL     OW 2390   0.316   0.078   4.357
  589SOL    HW1 2391   0.298   0.171   4.389
  589SOL    HW2 2392   0.352   0.023   4.433
  590SOL     OW 2393   1.617   0.374   4.093
  590SOL    HW1 2394   1.645   0.305   4.160
  590SOL    HW2 2395   1.591   0.458   4.141
  591SOL     OW 2396   1.020   0.759   4.690
  591SOL    HW1 2397   1.049   0.770   4.785
  591SOL    HW2 2398   0.992   0.664   4.675
  592SOL     OW 2399   1.532   0.270   3.858
  592SOL    HW1 2400   1.460   0.205   3.882
  592SOL    HW2 2401   1.566   0.314   3.941
  593SOL     OW 2402   1.303   0.829   3.764
  593SOL    HW1 2403   1.339   0.736   3.763
  593SOL    HW2 2404   1.318   0.871   3.674
  594SOL     OW 2405   1.062   1.339   4.568
  594SOL    HW1 2406   1.065   1.259   4.507
  594SOL    HW2 2407   1.129   1.406   4.538
  595SOL     OW 2408   0.326   0.796   4.656
  595SOL    HW1 2409   0.420   0.832   4.657
  595SOL    HW2 2410   0.325   0.704   4.694
  596SOL     OW 2411   0.320   0.524   4.729
  596SOL    HW1 2412   0.285   0.431   4.722
  596SOL    HW2 2413   0.405   0.532   4.677
  597SOL     OW 2414   4.978   1.307   3.850
  597SOL    HW1 2415   4.894   1.346   3.890
  597SOL    HW2 2416   5.010   1.232   3.908
  598SOL     OW 2417   0.096   1.826   4.645
  598SOL    HW1 2418   0.038   1.762   4.595
  598SOL    HW2 2419   0.192   1.810   4.620
  599SOL     OW 2420   0.504   1.576   4.627
  599SOL    HW1 2421   0.575   1.641   4.653
  599SOL    HW2 2422   0.544   1.505   4.570
  600SOL     OW 2423   0.062   0.554   4.818
  600SOL    HW1 2424   0.158   0.557   4.788
  600SOL    HW2 2425   0.053   0.604   4.904
  601SOL     OW 2426   0.817   0.572   4.078
  601SOL    HW1 2427   0.826   0.491   4.020
  601SOL    HW2 2428   0.738   0.625   4.049
  602SOL     OW 2429   1.655   0.602   4.901
  602SOL    HW1 2430   1.636   0.531   4.969
  602SOL    HW2 2431   1.743   0.585   4.858
  603SOL     OW 2432   0.707   0.455   4.987
  603SOL    HW1 2433   0.622   0.403   4.987
  603SOL    HW2 2434   0.705   0.524   4.914
  604SOL     OW 2435   0.464   0.505   3.922
  604SOL    HW1 2436   0.531   0.577   3.942
  604SOL    HW2 2437   0.377   0.546   3.897
  605SOL     OW 2438   1.331   1.051   4.896
  605SOL    HW1 2439   1.346   0.976   4.832
  605SOL    HW2 2440   1.250   1.103   4.868
  606SOL     OW 2441   1.308   0.852   4.031
  606SOL    HW1 2442   1.231   0.817   4.083
  606SOL    HW2 2443   1.290   0.843   3.934
  607SOL     OW 2444   1.740   1.751   4.836
  607SOL    HW1 2445   1.822   1.783   4.789
  607SOL    HW2 2446   1.736   1.651   4.833
  608SOL     OW 2447   0.086   1.261   4.751
  608SOL    HW1 2448   0.112   1.271   4.847
  608SOL    HW2 2449  -0.010   1.236   4.744
  609SOL     OW 2450   1.716   0.138   4.229
  609SOL    HW1 2451   1.794   0.116   4.171
  609SOL    HW2 2452   1.726   0.091   4.317
  610SOL     OW 2453   1.396   1.575   4.211
  610SOL    HW1 2454   1.456   1.602   4.136
  610SOL    HW2 2455   1.341   1.653   4.240
  611SOL     OW 2456   1.279   0.928   4.395
  611SOL    HW1 2457   1.352   0.860   4.406
  611SOL    HW2 2458   1.313   1.005   4.341
  612SOL     OW 2459   0.675   1.614   3.878
  612SOL    HW1 2460   0.685   1.632   3.781
  612SOL    HW2 2461   0.616   1.533   3.891
  613SOL     OW 2462   1.699   1.782   0.099
  613SOL    HW1 2463   1.717   1.776   0.001
  613SOL    HW2 2464   1.634   1.856   0.116
  614SOL     OW 2465   1.848   0.157   4.680
  614SOL    HW1 2466   1.860   0.068   4.636
  614SOL    HW2 2467   1.755   0.190   4.664
  615SOL     OW 2468   0.264   0.325   4.447
  615SOL    HW1 2469   0.179   0.367   4.417
  615SOL    HW2 2470   0.262   0.312   4.546
  616SOL     OW 2471   1.208   1.603   3.747
  616SOL    HW1 2472   1.203   1.509   3.783
  616SOL    HW2 2473   1.136   1.616   3.679
  617SOL     OW 2474   1.492   1.625   3.763
  617SOL    HW1 2475   1.392   1.618   3.754
  617SOL    HW2 2476   1.533   1.632   3.672
  618SOL     OW 2477   1.051   1.103   4.433
  618SOL    HW1 2478   0.977   1.053   4.477
  618SOL    HW2 2479   1.119   1.039   4.398
  619SOL     OW 2480   1.026   0.248   4.680
  619SOL    HW1 2481   1.005   0.187   4.604
  619SOL    HW2 2482   1.016   0.198   4.766
  620SOL     OW 2483   0.599   1.489   4.204
  620SOL    HW1 2484   0.646   1.434   4.134
  620SOL    HW2 2485   0.534   1.550   4.160
  621SOL     OW 2486   1.722   0.389   0.066
  621SOL    HW1 2487   1.796   0.422   0.125
  621SOL    HW2 2488   1.749   0.302   0.024
  622SOL     OW 2489   0.244   1.370   3.999
  622SOL    HW1 2490   0.145   1.364   3.988
  622SOL    HW2 2491   0.266   1.400   4.092
  623SOL     OW 2492   0.059   0.329   3.755
  623SOL    HW1 2493  -0.034   0.313   3.723
  623SOL    HW2 2494   0.099   0.405   3.703
  624SOL     OW 2495   1.183   1.344   3.843
  624SOL    HW1 2496   1.086   1.318   3.837
  624SOL    HW2 2497   1.212   1.346   3.938
  625SOL     OW 2498   1.501   1.779   4.699
  625SOL    HW1 2499   1.515   1.836   4.619
  625SOL    HW2 2500   1.589   1.764   4.745
  626SOL     OW 2501   1.687   0.877   4.962
  626SOL    HW1 2502   1.656   0.788   4.930
  626SOL    HW2 2503   1.658   0.948   4.897
  627SOL     OW 2504   1.256   0.344   4.179
  627SOL    HW1 2505   1.305   0.257   4.177
  627SOL    HW2 2506   1.270   0.389   4.267
  628SOL     OW 2507   0.590   0.739   4.389
  628SOL    HW1 2508   0.631   0.830   4.378
  628SOL    HW2 2509   0.516   0.728   4.323
  629SOL     OW 2510   1.745   0.931   0.216
  629SOL    HW1 2511   1.803   1.012   0.210
  629SOL    HW2 2512   1.714   0.904   0.125
  630SOL     OW 2513   0.869   1.369   3.761
  630SOL    HW1 2514   0.819   1.394   3.844
  630SOL    HW2 2515   0.883   1.450   3.705
  631SOL     OW 2516   0.666   1.794   4.680
  631SOL    HW1 2517   0.641   1.885   4.646
  631SOL    HW2 2518   0.764   1.779   4.666
  632SOL     OW 2519   0.868   0.967   4.580
  632SOL    HW1 2520   0.915   0.889   4.621
  632SOL    HW2 2521   0.827   1.023   4.652
  633SOL     OW 2522   1.854   1.557   4.570
  633SOL    HW1 2523   1.776   1.545   4.509
  633SOL    HW2 2524   1.851   1.488   4.643
  634SOL     OW 2525   0.104   1.256   4.407
  634SOL    HW1 2526   0.096   1.201   4.490
  634SOL    HW2 2527   0.147   1.201   4.335
  635SOL     OW 2528   0.430   0.430   4.247
  635SOL    HW1 2529   0.471   0.357   4.191
  635SOL    HW2 2530   0.381   0.389   4.324
  636SOL     OW 2531   1.698   1.488   4.823
  636SOL    HW1 2532   1.619   1.454   4.772
  636SOL    HW2 2533   1.711   1.432   4.905
  637SOL     OW 2534   0.821   1.581   4.405
  637SOL    HW1 2535   0.820   1.624   4.314
  637SOL    HW2 2536   0.743   1.519   4.413
  638SOL     OW 2537   1.429   0.221   4.844
  638SOL    HW1 2538   1.481   0.137   4.862
  638SOL    HW2 2539   1.406   0.265   4.931
  639SOL     OW 2540   0.771   1.333   4.039
  639SOL    HW1 2541   0.735   1.240   4.044
  639SOL    HW2 2542   0.858   1.337   4.089
  640SOL     OW 2543   1.356   0.050   3.887
  640SOL    HW1 2544   1.395  -0.022   3.830
  640SOL    HW2 2545   1.259   0.030   3.904
  641SOL     OW 2546   1.302   0.468   4.417
  641SOL    HW1 2547   1.241   0.547   4.417
  641SOL    HW2 2548   1.295   0.420   4.504
  642SOL     OW 2549   1.596   0.218   4.605
  642SOL    HW1 2550   1.517   0.219   4.667
  642SOL    HW2 2551   1.593   0.300   4.547
  643SOL     OW 2552   0.879   1.654   4.071
  643SOL    HW1 2553   0.809   1.631   4.003
  643SOL    HW2 2554   0.848   1.731   4.126
  644SOL     OW 2555   0.238   2.481   0.104
  644SOL    HW1 2556   0.155   2.495   0.158
  644SOL    HW2 2557   0.213   2.457   0.010
  645SOL     OW 2558   5.007   2.253   0.639
  645SOL    HW1 2559   4.927   2.290   0.687
  645SOL    HW2 2560   4.983   2.165   0.598
  646SOL     OW 2561   0.567   3.148   1.186
  646SOL    HW1 2562   0.480   3.140   1.137
  646SOL    HW2 2563   0.581   3.243   1.214
  647SOL     OW 2564   1.552   3.372   0.709
  647SOL    HW1 2565   1.509   3.353   0.798
  647SOL    HW2 2566   1.482   3.380   0.639
  648SOL     OW 2567   1.133   2.562   0.704
  648SOL    HW1 2568   1.186   2.644   0.683
  648SOL    HW2 2569   1.081   2.577   0.789
  649SOL     OW 2570   1.792   2.464   0.230
  649SOL    HW1 2571   1.732   2.511   0.165
  649SOL    HW2 2572   1.738   2.407   0.291
  650SOL     OW 2573   0.719   2.997   1.021
  650SOL    HW1 2574   0.662   3.036   1.094
  650SOL    HW2 2575   0.771   3.071   0.977
  651SOL     OW 2576   0.862   2.645   1.819
  651SOL    HW1 2577   0.842   2.722   1.880
  651SOL    HW2 2578   0.892   2.681   1.730
  652SOL     OW 2579   0.686   2.864   0.644
  652SOL    HW1 2580   0.754   2.847   0.716
  652SOL    HW2 2581   0.613   2.921   0.681
  653SOL     OW 2582   0.703   3.021   1.812
  653SOL    HW1 2583   0.755   3.103   1.836
  653SOL    HW2 2584   0.615   3.047   1.772
  654SOL     OW 2585   1.464   3.366   1.341
  654SOL    HW1 2586   1.515   3.451   1.357
  654SOL    HW2 2587   1.394   3.355   1.412
  655SOL     OW 2588   0.445   2.257   1.482
  655SOL    HW1 2589   0.526   2.199   1.492
  655SOL    HW2 2590   0.363   2.205   1.505
  656SOL     OW 2591   1.615   2.314   0.742
  656SOL    HW1 2592   1.540   2.339   0.680
  656SOL    HW2 2593   1.638   2.393   0.799
  657SOL     OW 2594   0.246   3.574   0.487
  657SOL    HW1 2595   0.263   3.655   0.542
  657SOL    HW2 2596   0.321   3.561   0.421
  658SOL     OW 2597   1.137   3.204   1.698
  658SOL    HW1 2598   1.200   3.179   1.771
  658SOL    HW2 2599   1.075   3.128   1.680
  659SOL     OW 2600   0.222   3.307   0.537
  659SOL    HW1 2601   0.222   3.405   0.554
  659SOL    HW2 2602   0.180   3.259   0.614
  660SOL     OW 2603   0.303   2.943   0.912
  660SOL    HW1 2604   0.293   2.845   0.932
  660SOL    HW2 2605   0.227   2.993   0.954
  661SOL     OW 2606   0.612   3.653   1.433
  661SOL    HW1 2607   0.525   3.632   1.477
  661SOL    HW2 2608   0.638   3.748   1.454
  662SOL     OW 2609   0.599   2.839   0.133
  662SOL    HW1 2610   0.608   2.910   0.064
  662SOL    HW2 2611   0.641   2.870   0.218
  663SOL     OW 2612   1.597   1.983   1.474
  663SOL    HW1 2613   1.592   2.059   1.409
  663SOL    HW2 2614   1.588   2.019   1.567
  664SOL     OW 2615   0.127   2.501   0.560
  664SOL    HW1 2616   0.081   2.416   0.586
  664SOL    HW2 2617   0.118   2.568   0.634
  665SOL     OW 2618   1.842   3.618   0.342
  665SOL    HW1 2619   1.905   3.579   0.409
  665SOL    HW2 2620   1.868   3.713   0.324
  666SOL     OW 2621   4.973   3.444   0.122
  666SOL    HW1 2622   4.967   3.356   0.167
  666SOL    HW2 2623   5.011   3.512   0.185
  667SOL     OW 2624   1.683   2.770   0.628
  667SOL    HW1 2625   1.774   2.733   0.606
  667SOL    HW2 2626   1.656   2.836   0.557
  668SOL     OW 2627   1.641   2.974   0.448
  668SOL    HW1 2628   1.719   2.993   0.389
  668SOL    HW2 2629   1.641   3.037   0.525
  669SOL     OW 2630   0.132   2.602   1.591
  669SOL    HW1 2631   0.231   2.609   1.593
  669SOL    HW2 2632   0.091   2.694   1.592
  670SOL     OW 2633   0.611   3.250   0.734
  670SOL    HW1 2634   0.568   3.161   0.744
  670SOL    HW2 2635   0.598   3.283   0.640
  671SOL     OW 2636   1.291   3.087   1.425
  671SOL    HW1 2637   1.342   3.037   1.355
  671SOL    HW2 2638   1.344   3.090   1.510
  672SOL     OW 2639   0.810   1.867   0.498
  672SOL    HW1 2640   0.857   1.954   0.484
  672SOL    HW2 2641   0.713   1.883   0.516
  673SOL     OW 2642   0.190   2.814   1.277
  673SOL    HW1 2643   0.281   2.774   1.267
  673SOL    HW2 2644   0.131   2.782   1.203
  674SOL     OW 2645   1.485   2.865   0.208
  674SOL    HW1 2646   1.416   2.804   0.248
  674SOL    HW2 2647   1.569   2.859   0.262
  675SOL     OW 2648   1.189   3.665   1.619
  675SOL    HW1 2649   1.198   3.732   1.545
  675SOL    HW2 2650   1.203   3.573   1.583
  676SOL     OW 2651   0.337   2.118   1.818
  676SOL    HW1 2652   0.394   2.200   1.820
  676SOL    HW2 2653   0.241   2.144   1.820
  677SOL     OW 2654   1.460   3.281   0.962
  677SOL    HW1 2655   1.405   3.286   1.046
  677SOL    HW2 2656   1.452   3.189   0.923
  678SOL     OW 2657   1.654   3.598   0.588
  678SOL    HW1 2658   1.634   3.572   0.494
  678SOL    HW2 2659   1.629   3.524   0.650
  679SOL     OW 2660   0.595   2.588   0.268
  679SOL    HW1 2661   0.613   2.675   0.221
  679SOL    HW2 2662   0.522   2.602   0.336
  680SOL     OW 2663   1.589   3.515   0.333
  680SOL    HW1 2664   1.682   3.550   0.330
  680SOL    HW2 2665   1.554   3.503   0.240
  681SOL     OW 2666   0.792   2.477   1.454
  681SOL    HW1 2667   0.764   2.455   1.548
  681SOL    HW2 2668   0.752   2.411   1.391
  682SOL     OW 2669   1.394   2.332   1.678
  682SOL    HW1 2670   1.390   2.381   1.765
  682SOL    HW2 2671   1.461   2.257   1.685
  683SOL     OW 2672   0.955   2.744   1.581
  683SOL    HW1 2673   1.014   2.672   1.544
  683SOL    HW2 2674   0.905   2.787   1.506
  684SOL     OW 2675   1.047   2.563   0.428
  684SOL    HW1 2676   1.066   2.556   0.526
  684SOL    HW2 2677   0.963   2.514   0.406
  685SOL     OW 2678   0.097   2.681   0.766
  685SOL    HW1 2679   0.183   2.664   0.815
  685SOL    HW2 2680   0.060   2.769   0.794
  686SOL     OW 2681   0.135   3.710   1.578
  686SOL    HW1 2682   0.123   3.684   1.674
  686SOL    HW2 2683   0.045   3.713   1.533
  687SOL     OW 2684   0.853   2.217   0.217
  687SOL    HW1 2685   0.877   2.283   0.146
  687SOL    HW2 2686   0.846   2.126   0.177
  688SOL     OW 2687   1.707   2.438   1.827
  688SOL    HW1 2688   1.669   2.516   1.776
  688SOL    HW2 2689   1.742   2.370   1.764
  689SOL     OW 2690   1.374   3.002   0.538
  689SOL    HW1 2691   1.458   2.984   0.486
  689SOL    HW2 2692   1.319   3.071   0.491
  690SOL     OW 2693   0.536   2.051   0.894
  690SOL    HW1 2694   0.546   2.069   0.992
  690SOL    HW2 2695   0.558   2.134   0.842
  691SOL     OW 2696   0.997   3.303   0.469
  691SOL    HW1 2697   0.961   3.385   0.424
  691SOL    HW2 2698   0.996   3.315   0.568
  692SOL     OW 2699   0.363   3.668   0.850
  692SOL    HW1 2700   0.404   3.578   0.868
  692SOL    HW2 2701   0.428   3.739   0.876
  693SOL     OW 2702   1.793   2.903   0.851
  693SOL    HW1 2703   1.726   2.890   0.778
  693SOL    HW2 2704   1.746   2.927   0.936
  694SOL     OW 2705   1.234   3.403   1.515
  694SOL    HW1 2706   1.225   3.335   1.588
  694SOL    HW2 2707   1.168   3.383   1.443
  695SOL     OW 2708   0.335   2.809   0.262
  695SOL    HW1 2709   0.415   2.844   0.213
  695SOL    HW2 2710   0.277   2.758   0.199
  696SOL     OW 2711   1.478   2.600   0.727
  696SOL    HW1 2712   1.470   2.558   0.818
  696SOL    HW2 2713   1.557   2.660   0.725
  697SOL     OW 2714   0.456   3.123   1.743
  697SOL    HW1 2715   0.425   3.139   1.650
  697SOL    HW2 2716   0.383   3.078   1.795
  698SOL     OW 2717   1.114   3.645   0.239
  698SOL    HW1 2718   1.040   3.610   0.296
  698SOL    HW2 2719   1.125   3.587   0.159
  699SOL     OW 2720   0.196   2.154   1.530
  699SOL    HW1 2721   0.119   2.188   1.475
  699SOL    HW2 2722   0.181   2.058   1.553
  700SOL     OW 2723   1.647   3.247   0.061
  700SOL    HW1 2724   1.609   3.340   0.068
  700SOL    HW2 2725   1.574   3.181   0.076
  701SOL     OW 2726   0.469   3.591   0.330
  701SOL    HW1 2727   0.508   3.661   0.390
  701SOL    HW2 2728   0.537   3.565   0.262
  702SOL     OW 2729   1.404   1.972   0.430
  702SOL    HW1 2730   1.395   1.928   0.340
  702SOL    HW2 2731   1.500   1.976   0.455
  703SOL     OW 2732   0.270   3.658   1.230
  703SOL    HW1 2733   0.306   3.586   1.290
  703SOL    HW2 2734   0.236   3.617   1.145
  704SOL     OW 2735   0.935   3.563   0.903
  704SOL    HW1 2736   1.016   3.511   0.927
  704SOL    HW2 2737   0.887   3.517   0.828
  705SOL     OW 2738   0.393   2.552   0.479
  705SOL    HW1 2739   0.420   2.456   0.487
  705SOL    HW2 2740   0.295   2.560   0.497
  706SOL     OW 2741   1.538   2.088   1.728
  706SOL    HW1 2742   1.548   2.111   1.825
  706SOL    HW2 2743   1.467   2.019   1.717
  707SOL     OW 2744   0.643   1.992   0.103
  707SOL    HW1 2745   0.721   1.931   0.112
  707SOL    HW2 2746   0.569   1.946   0.054
  708SOL     OW 2747   0.763   2.141   1.752
  708SOL    HW1 2748   0.840   2.079   1.741
  708SOL    HW2 2749   0.710   2.116   1.833
  709SOL     OW 2750   0.876   3.376   1.194
  709SOL    HW1 2751   0.862   3.340   1.102
  709SOL    HW2 2752   0.948   3.324   1.239
  710SOL     OW 2753   1.345   2.455   1.440
  710SOL    HW1 2754   1.374   2.418   1.528
  710SOL    HW2 2755   1.381   2.548   1.430
  711SOL     OW 2756   0.815   3.252   0.932
  711SOL    HW1 2757   0.902   3.252   0.883
  711SOL    HW2 2758   0.740   3.258   0.866
  712SOL     OW 2759   0.927   2.376   0.899
  712SOL    HW1 2760   0.902   2.367   0.803
  712SOL    HW2 2761   0.956   2.287   0.935
  713SOL     OW 2762   0.544   1.926   0.505
  713SOL    HW1 2763   0.462   1.926   0.563
  713SOL    HW2 2764   0.542   2.007   0.445
  714SOL     OW 2765   1.436   3.096   0.092
  714SOL    HW1 2766   1.464   3.012   0.139
  714SOL    HW2 2767   1.347   3.082   0.048
  715SOL     OW 2768   0.375   1.894   0.144
  715SOL    HW1 2769   0.371   1.988   0.180
  715SOL    HW2 2770   0.378   1.829   0.220
  716SOL     OW 2771   0.936   2.109   0.463
  716SOL    HW1 2772   0.901   2.156   0.382
  716SOL    HW2 2773   1.036   2.118   0.466
  717SOL     OW 2774   1.080   2.540   1.454
  717SOL    HW1 2775   1.003   2.479   1.470
  717SOL    HW2 2776   1.165   2.489   1.462
  718SOL     OW 2777   1.239   3.436   0.794
  718SOL    HW1 2778   1.245   3.509   0.725
  718SOL    HW2 2779   1.311   3.448   0.862
  719SOL     OW 2780   0.477   3.014   0.725
  719SOL    HW1 2781   0.415   2.989   0.800
  719SOL    HW2 2782   0.431   2.996   0.638
  720SOL     OW 2783   1.268   3.657   0.607
  720SOL    HW1 2784   1.315   3.723   0.549
  720SOL    HW2 2785   1.190   3.701   0.652
  721SOL     OW 2786   1.016   2.389   0.044
  721SOL    HW1 2787   1.011   2.468  -0.016
  721SOL    HW2 2788   1.096   2.398   0.104
  722SOL     OW 2789   0.074   2.423   1.393
  722SOL    HW1 2790   0.165   2.412   1.353
  722SOL    HW2 2791   0.076   2.494   1.463
  723SOL     OW 2792   0.555   2.081   1.166
  723SOL    HW1 2793   0.605   2.000   1.197
  723SOL    HW2 2794   0.468   2.087   1.215
  724SOL     OW 2795   0.867   2.322   0.639
  724SOL    HW1 2796   0.820   2.383   0.575
  724SOL    HW2 2797   0.891   2.237   0.592
  725SOL     OW 2798   1.029   1.882   0.709
  725SOL    HW1 2799   0.949   1.893   0.650
  725SOL    HW2 2800   1.004   1.829   0.790
  726SOL     OW 2801   1.437   3.028   0.858
  726SOL    HW1 2802   1.367   2.957   0.859
  726SOL    HW2 2803   1.466   3.045   0.764
  727SOL     OW 2804   1.468   2.459   0.988
  727SOL    HW1 2805   1.433   2.366   0.992
  727SOL    HW2 2806   1.536   2.473   1.061
  728SOL     OW 2807   1.882   2.695   0.437
  728SOL    HW1 2808   1.924   2.607   0.459
  728SOL    HW2 2809   1.844   2.690   0.344
  729SOL     OW 2810   0.492   3.267   0.169
  729SOL    HW1 2811   0.416   3.238   0.227
  729SOL    HW2 2812   0.461   3.269   0.073
  730SOL     OW 2813   1.667   3.131   0.660
  730SOL    HW1 2814   1.767   3.134   0.663
  730SOL    HW2 2815   1.631   3.223   0.674
  731SOL     OW 2816   1.402   2.427   0.092
  731SOL    HW1 2817   1.329   2.415   0.159
  731SOL    HW2 2818   1.467   2.352   0.099
  732SOL     OW 2819   0.522   2.120   0.316
  732SOL    HW1 2820   0.576   2.073   0.247
  732SOL    HW2 2821   0.500   2.212   0.283
  733SOL     OW 2822   1.753   3.092   1.587
  733SOL    HW1 2823   1.845   3.054   1.573
  733SOL    HW2 2824   1.761   3.189   1.609
  734SOL     OW 2825   1.064   3.241   1.372
  734SOL    HW1 2826   0.981   3.196   1.403
  734SOL    HW2 2827   1.143   3.182   1.392
  735SOL     OW 2828   1.610   3.490   1.653
  735SOL    HW1 2829   1.600   3.525   1.560
  735SOL    HW2 2830   1.695   3.439   1.660
  736SOL     OW 2831   1.632   2.958   1.076
  736SOL    HW1 2832   1.627   3.023   1.152
  736SOL    HW2 2833   1.552   2.971   1.016
  737SOL     OW 2834   0.918   1.961   1.391
  737SOL    HW1 2835   0.943   1.930   1.299
  737SOL    HW2 2836   0.997   2.001   1.436
  738SOL     OW 2837   0.971   2.991   1.689
  738SOL    HW1 2838   0.879   2.999   1.727
  738SOL    HW2 2839   0.985   2.899   1.653
  739SOL     OW 2840   0.713   2.919   0.370
  739SOL    HW1 2841   0.692   2.907   0.467
  739SOL    HW2 2842   0.791   2.862   0.345
  740SOL     OW 2843   0.422   2.671   1.250
  740SOL    HW1 2844   0.495   2.685   1.317
  740SOL    HW2 2845   0.378   2.583   1.267
  741SOL     OW 2846   1.280   2.250   1.282
  741SOL    HW1 2847   1.313   2.325   1.338
  741SOL    HW2 2848   1.198   2.279   1.231
  742SOL     OW 2849   0.085   3.425   1.282
  742SOL    HW1 2850   0.043   3.505   1.325
  742SOL    HW2 2851   0.167   3.398   1.333
  743SOL     OW 2852   0.354   2.969   0.489
  743SOL    HW1 2853   0.353   3.051   0.432
  743SOL    HW2 2854   0.351   2.888   0.432
  744SOL     OW 2855   0.553   2.404   0.862
  744SOL    HW1 2856   0.567   2.463   0.783
  744SOL    HW2 2857   0.618   2.430   0.934
  745SOL     OW 2858   1.247   3.207   0.406
  745SOL    HW1 2859   1.304   3.285   0.432
  745SOL    HW2 2860   1.151   3.229   0.424
  746SOL     OW 2861   1.586   2.492   0.472
  746SOL    HW1 2862   1.535   2.537   0.545
  746SOL    HW2 2863   1.632   2.561   0.416
  747SOL     OW 2864   0.357   3.376   1.323
  747SOL    HW1 2865   0.329   3.340   1.233
  747SOL    HW2 2866   0.454   3.399   1.321
  748SOL     OW 2867   0.412   2.605   1.602
  748SOL    HW1 2868   0.474   2.656   1.542
  748SOL    HW2 2869   0.450   2.515   1.621
  749SOL     OW 2870   1.600   2.643   1.680
  749SOL    HW1 2871   1.509   2.684   1.680
  749SOL    HW2 2872   1.656   2.686   1.609
  750SOL     OW 2873   0.985   1.979   1.702
  750SOL    HW1 2874   1.042   2.060   1.704
  750SOL    HW2 2875   1.042   1.898   1.688
  751SOL     OW 2876   0.496   1.906   1.746
  751SOL    HW1 2877   0.456   1.846   1.677
  751SOL    HW2 2878   0.433   1.980   1.767
  752SOL     OW 2879   0.587   2.735   1.033
  752SOL    HW1 2880   0.618   2.830   1.024
  752SOL    HW2 2881   0.526   2.728   1.112
  753SOL     OW 2882   1.356   2.716   1.047
  753SOL    HW1 2883   1.274   2.724   0.991
  753SOL    HW2 2884   1.396   2.625   1.036
  754SOL     OW 2885   1.205   2.390   0.272
  754SOL    HW1 2886   1.213   2.306   0.326
  754SOL    HW2 2887   1.159   2.460   0.327
  755SOL     OW 2888   0.725   2.495   1.056
  755SOL    HW1 2889   0.801   2.474   0.994
  755SOL    HW2 2890   0.692   2.587   1.039
  756SOL     OW 2891   1.731   2.823   1.850
  756SOL    HW1 2892   1.688   2.760   1.785
  756SOL    HW2 2893   1.673   2.834   1.930
  757SOL     OW 2894   0.298   1.929   0.628
  757SOL    HW1 2895   0.285   2.026   0.649
  757SOL    HW2 2896   0.309   1.877   0.713
  758SOL     OW 2897   1.618   2.234   0.368
  758SOL    HW1 2898   1.640   2.162   0.434
  758SOL    HW2 2899   1.589   2.316   0.416
  759SOL     OW 2900   1.024   2.621   0.961
  759SOL    HW1 2901   1.024   2.642   1.058
  759SOL    HW2 2902   0.993   2.528   0.947
  760SOL     OW 2903   0.986   3.429   1.713
  760SOL    HW1 2904   0.966   3.477   1.628
  760SOL    HW2 2905   1.031   3.341   1.693
  761SOL     OW 2906   1.857   3.373   1.604
  761SOL    HW1 2907   1.870   3.397   1.508
  761SOL    HW2 2908   1.942   3.391   1.655
  762SOL     OW 2909   0.359   2.784   1.804
  762SOL    HW1 2910   0.441   2.798   1.859
  762SOL    HW2 2911   0.377   2.716   1.733
  763SOL     OW 2912   1.483   2.127   0.132
  763SOL    HW1 2913   1.438   2.046   0.168
  763SOL    HW2 2914   1.543   2.166   0.201
  764SOL     OW 2915   1.264   2.663   0.048
  764SOL    HW1 2916   1.322   2.581   0.049
  764SOL    HW2 2917   1.311   2.737  -0.000
  765SOL     OW 2918   1.047   3.233   0.796
  765SOL    HW1 2919   1.066   3.142   0.758
  765SOL    HW2 2920   1.130   3.289   0.789
  766SOL     OW 2921   0.330   2.664   0.927
  766SOL    HW1 2922   0.426   2.690   0.931
  766SOL    HW2 2923   0.317   2.580   0.980
  767SOL     OW 2924   0.336   2.369   1.013
  767SOL    HW1 2925   0.301   2.278   0.990
  767SOL    HW2 2926   0.414   2.391   0.955
  768SOL     OW 2927   1.136   2.238   1.682
  768SOL    HW1 2928   1.084   2.294   1.746
  768SOL    HW2 2929   1.230   2.271   1.677
  769SOL     OW 2930   1.160   2.072   1.466
  769SOL    HW1 2931   1.148   2.131   1.545
  769SOL    HW2 2932   1.212   2.121   1.396
  770SOL     OW 2933   0.108   3.645   0.935
  770SOL    HW1 2934   0.047   3.627   0.858
  770SOL    HW2 2935   0.201   3.663   0.901
  771SOL     OW 2936   0.497   3.438   0.909
  771SOL    HW1 2937   0.568   3.503   0.935
  771SOL    HW2 2938   0.537   3.366   0.852
  772SOL     OW 2939   0.985   2.654   1.226
  772SOL    HW1 2940   1.040   2.629   1.306
  772SOL    HW2 2941   0.891   2.624   1.240
  773SOL     OW 2942   0.061   2.435   1.106
  773SOL    HW1 2943   0.150   2.393   1.089
  773SOL    HW2 2944   0.035   2.422   1.202
  774SOL     OW 2945   0.179   2.371   1.726
  774SOL    HW1 2946   0.225   2.314   1.658
  774SOL    HW2 2947   0.147   2.456   1.682
  775SOL     OW 2948   1.377   2.801   1.655
  775SOL    HW1 2949   1.397   2.899   1.662
  775SOL    HW2 2950   1.375   2.774   1.559
  776SOL     OW 2951   0.812   2.442   0.361
  776SOL    HW1 2952   0.818   2.358   0.307
  776SOL    HW2 2953   0.734   2.496   0.329
  777SOL     OW 2954   1.644   2.469   1.190
  777SOL    HW1 2955   1.626   2.408   1.267
  777SOL    HW2 2956   1.734   2.448   1.151
  778SOL     OW 2957   0.285   3.418   1.760
  778SOL    HW1 2958   0.230   3.495   1.793
  778SOL    HW2 2959   0.226   3.338   1.747
  779SOL     OW 2960   0.681   2.323   1.262
  779SOL    HW1 2961   0.643   2.236   1.230
  779SOL    HW2 2962   0.692   2.385   1.185
  780SOL     OW 2963   0.925   3.546   1.471
  780SOL    HW1 2964   0.904   3.503   1.383
  780SOL    HW2 2965   0.923   3.645   1.460
  781SOL     OW 2966   0.456   2.353   0.207
  781SOL    HW1 2967   0.531   2.420   0.209
  781SOL    HW2 2968   0.371   2.400   0.184
  782SOL     OW 2969   0.153   3.001   1.467
  782SOL    HW1 2970   0.137   2.953   1.553
  782SOL    HW2 2971   0.164   2.935   1.393
  783SOL     OW 2972   1.288   2.709   0.313
  783SOL    HW1 2973   1.214   2.673   0.369
  783SOL    HW2 2974   1.273   2.684   0.217
  784SOL     OW 2975   1.756   3.604   1.143
  784SOL    HW1 2976   1.825   3.643   1.083
  784SOL    HW2 2977   1.743   3.507   1.121
  785SOL     OW 2978   1.249   3.600   1.114
  785SOL    HW1 2979   1.335   3.613   1.065
  785SOL    HW2 2980   1.251   3.512   1.161
  786SOL     OW 2981   0.683   3.530   1.726
  786SOL    HW1 2982   0.623   3.609   1.728
  786SOL    HW2 2983   0.745   3.537   1.648
  787SOL     OW 2984   1.711   2.002   0.511
  787SOL    HW1 2985   1.789   1.991   0.450
  787SOL    HW2 2986   1.694   1.916   0.559
  788SOL     OW 2987   1.384   3.430   0.492
  788SOL    HW1 2988   1.457   3.458   0.429
  788SOL    HW2 2989   1.334   3.511   0.523
  789SOL     OW 2990   0.127   3.644   1.842
  789SOL    HW1 2991   0.075   3.574   1.890
  789SOL    HW2 2992   0.196   3.683   1.903
  790SOL     OW 2993   1.280   2.786   0.667
  790SOL    HW1 2994   1.356   2.721   0.677
  790SOL    HW2 2995   1.312   2.864   0.614
  791SOL     OW 2996   0.816   3.135   1.428
  791SOL    HW1 2997   0.789   3.175   1.516
  791SOL    HW2 2998   0.746   3.156   1.359
  792SOL     OW 2999   0.660   3.479   0.167
  792SOL    HW1 3000   0.693   3.485   0.072
  792SOL    HW2 3001   0.610   3.394   0.179
  793SOL     OW 3002   1.629   3.593   1.390
  793SOL    HW1 3003   1.679   3.597   1.303
  793SOL    HW2 3004   1.616   3.686   1.424
  794SOL     OW 3005   0.262   2.181   0.714
  794SOL    HW1 3006   0.178   2.226   0.686
  794SOL    HW2 3007   0.259   2.163   0.812
  795SOL     OW 3008   1.167   3.481   0.037
  795SOL    HW1 3009   1.189   3.403   0.095
  795SOL    HW2 3010   1.174   3.454  -0.059
  796SOL     OW 3011   0.826   2.870   1.375
  796SOL    HW1 3012   0.873   2.859   1.287
  796SOL    HW2 3013   0.826   2.966   1.401
  797SOL     OW 3014   0.921   2.768   0.282
  797SOL    HW1 3015   0.996   2.819   0.239
  797SOL    HW2 3016   0.958   2.695   0.339
  798SOL     OW 3017   1.457   3.446   0.016
  798SOL    HW1 3018   1.380   3.502   0.047
  798SOL    HW2 3019   1.531   3.505  -0.015
  799SOL     OW 3020   0.362   3.166   1.502
  799SOL    HW1 3021   0.362   3.246   1.442
  799SOL    HW2 3022   0.285   3.107   1.479
  800SOL     OW 3023   1.593   3.134   1.283
  800SOL    HW1 3024   1.684   3.138   1.324
  800SOL    HW2 3025   1.542   3.216   1.307
  801SOL     OW 3026   1.048   2.964   0.699
  801SOL    HW1 3027   0.973   2.914   0.742
  801SOL    HW2 3028   1.117   2.900   0.667
  802SOL     OW 3029   0.599   3.347   0.480
  802SOL    HW1 3030   0.644   3.295   0.407
  802SOL    HW2 3031   0.537   3.414   0.439
  803SOL     OW 3032   1.719   2.262   1.380
  803SOL    HW1 3033   1.795   2.327   1.381
  803SOL    HW2 3034   1.743   2.183   1.323
  804SOL     OW 3035   0.259   3.212   0.296
  804SOL    HW1 3036   0.167   3.175   0.283
  804SOL    HW2 3037   0.264   3.256   0.386
  805SOL     OW 3038   0.118   2.864   1.702
  805SOL    HW1 3039   0.043   2.856   1.768
  805SOL    HW2 3040   0.204   2.840   1.747
  806SOL     OW 3041   0.677   2.059   1.497
  806SOL    HW1 3042   0.763   2.037   1.452
  806SOL    HW2 3043   0.695   2.089   1.591
  807SOL     OW 3044   1.427   2.722   1.392
  807SOL    HW1 3045   1.370   2.750   1.315
  807SOL    HW2 3046   1.523   2.731   1.368
  808SOL     OW 3047   0.620   2.694   1.432
  808SOL    HW1 3048   0.677   2.775   1.418
  808SOL    HW2 3049   0.678   2.613   1.443
  809SOL     OW 3050   1.492   3.640   0.983
  809SOL    HW1 3051   1.513   3.694   0.901
  809SOL    HW2 3052   1.577   3.621   1.033
  810SOL     OW 3053   0.719   2.426   1.708
  810SOL    HW1 3054   0.761   2.494   1.767
  810SOL    HW2 3055   0.750   2.335   1.734
  811SOL     OW 3056   1.468   3.066   1.639
  811SOL    HW1 3057   1.457   3.076   1.738
  811SOL    HW2 3058   1.564   3.077   1.615
  812SOL     OW 3059   0.383   3.599   1.565
  812SOL    HW1 3060   0.295   3.645   1.552
  812SOL    HW2 3061   0.369   3.514   1.616
  813SOL     OW 3062   1.672   2.745   1.254
  813SOL    HW1 3063   1.663   2.653   1.216
  813SOL    HW2 3064   1.662   2.813   1.181
  814SOL     OW 3065   1.219   2.179   0.457
  814SOL    HW1 3066   1.284   2.104   0.444
  814SOL    HW2 3067   1.245   2.233   0.537
  815SOL     OW 3068   0.589   2.601   0.666
  815SOL    HW1 3069   0.632   2.690   0.654
  815SOL    HW2 3070   0.516   2.590   0.599
  816SOL     OW 3071   1.767   2.224   1.645
  816SOL    HW1 3072   1.742   2.239   1.550
  816SOL    HW2 3073   1.699   2.165   1.689
  817SOL     OW 3074   1.741   2.797   1.511
  817SOL    HW1 3075   1.742   2.894   1.533
  817SOL    HW2 3076   1.728   2.785   1.412
  818SOL     OW 3077   0.801   3.273   0.024
  818SOL    HW1 3078   0.798   3.244   0.119
  818SOL    HW2 3079   0.890   3.315   0.004
  819SOL     OW 3080   0.661   3.657   0.948
  819SOL    HW1 3081   0.638   3.751   0.922
  819SOL    HW2 3082   0.759   3.643   0.939
  820SOL     OW 3083   0.857   2.817   0.849
  820SOL    HW1 3084   0.915   2.748   0.892
  820SOL    HW2 3085   0.813   2.872   0.920
  821SOL     OW 3086   1.852   3.422   0.848
  821SOL    HW1 3087   1.780   3.413   0.778
  821SOL    HW2 3088   1.833   3.360   0.924
  822SOL     OW 3089   0.102   3.108   0.675
  822SOL    HW1 3090   0.055   3.043   0.735
  822SOL    HW2 3091   0.145   3.059   0.599
  823SOL     OW 3092   0.671   3.266   1.620
  823SOL    HW1 3093   0.591   3.218   1.656
  823SOL    HW2 3094   0.679   3.355   1.664
  824SOL     OW 3095   1.792   2.049   1.238
  824SOL    HW1 3096   1.819   1.958   1.267
  824SOL    HW2 3097   1.800   2.057   1.139
  825SOL     OW 3098   0.435   2.291   0.526
  825SOL    HW1 3099   0.465   2.221   0.461
  825SOL    HW2 3100   0.382   2.248   0.599
  826SOL     OW 3101   1.709   3.344   1.095
  826SOL    HW1 3102   1.621   3.320   1.054
  826SOL    HW2 3103   1.731   3.278   1.167
  827SOL     OW 3104   0.326   2.410   1.289
  827SOL    HW1 3105   0.383   2.360   1.354
  827SOL    HW2 3106   0.355   2.388   1.196
  828SOL     OW 3107   0.819   3.450   0.684
  828SOL    HW1 3108   0.820   3.489   0.593
  828SOL    HW2 3109   0.744   3.384   0.691
  829SOL     OW 3110   1.440   2.102   1.112
  829SOL    HW1 3111   1.451   2.006   1.141
  829SOL    HW2 3112   1.381   2.149   1.177
  830SOL     OW 3113   0.782   3.190   0.303
  830SOL    HW1 3114   0.743   3.100   0.319
  830SOL    HW2 3115   0.860   3.204   0.363
  831SOL     OW 3116   0.622   3.423   1.282
  831SOL    HW1 3117   0.622   3.507   1.337
  831SOL    HW2 3118   0.713   3.409   1.243
  832SOL     OW 3119   1.367   1.878   0.173
  832SOL    HW1 3120   1.372   1.860   0.075
  832SOL    HW2 3121   1.276   1.853   0.208
  833SOL     OW 3122   1.292   2.324   0.681
  833SOL    HW1 3123   1.237   2.407   0.689
  833SOL    HW2 3124   1.297   2.279   0.770
  834SOL     OW 3125   1.589   2.067   0.882
  834SOL    HW1 3126   1.529   2.086   0.960
  834SOL    HW2 3127   1.597   2.149   0.826
  835SOL     OW 3128   0.048   2.914   0.345
  835SOL    HW1 3129   0.136   2.905   0.299
  835SOL    HW2 3130   0.000   2.827   0.346
  836SOL     OW 3131   0.879   3.516   0.345
  836SOL    HW1 3132   0.805   3.493   0.282
  836SOL    HW2 3133   0.852   3.595   0.401
  837SOL     OW 3134   0.225   2.476   1.980
  837SOL    HW1 3135   0.137   2.475   2.027
  837SOL    HW2 3136   0.213   2.443   1.887
  838SOL     OW 3137   5.009   2.253   2.500
  838SOL    HW1 3138   4.928   2.288   2.549
  838SOL    HW2 3139   4.988   2.164   2.461
  839SOL     OW 3140   0.563   3.148   3.043
  839SOL    HW1 3141   0.474   3.155   2.997
  839SOL    HW2 3142   0.588   3.237   3.080
  840SOL     OW 3143   1.556   3.373   2.571
  840SOL    HW1 3144   1.510   3.354   2.657
  840SOL    HW2 3145   1.488   3.385   2.499
  841SOL     OW 3146   1.130   2.563   2.567
  841SOL    HW1 3147   1.183   2.645   2.545
  841SOL    HW2 3148   1.081   2.577   2.653
  842SOL     OW 3149   1.766   2.468   2.090
  842SOL    HW1 3150   1.745   2.461   1.992
  842SOL    HW2 3151   1.730   2.387   2.137
  843SOL     OW 3152   0.717   2.998   2.877
  843SOL    HW1 3153   0.659   3.037   2.948
  843SOL    HW2 3154   0.773   3.071   2.837
  844SOL     OW 3155   0.862   2.641   3.679
  844SOL    HW1 3156   0.841   2.707   3.751
  844SOL    HW2 3157   0.888   2.689   3.595
  845SOL     OW 3158   0.683   2.868   2.514
  845SOL    HW1 3159   0.755   2.853   2.582
  845SOL    HW2 3160   0.608   2.919   2.555
  846SOL     OW 3161   0.705   3.017   3.674
  846SOL    HW1 3162   0.758   3.097   3.700
  846SOL    HW2 3163   0.617   3.046   3.636
  847SOL     OW 3164   0.342   3.290   2.922
  847SOL    HW1 3165   0.261   3.272   2.867
  847SOL    HW2 3166   0.404   3.349   2.871
  848SOL     OW 3167   1.463   3.367   3.186
  848SOL    HW1 3168   1.509   3.449   3.221
  848SOL    HW2 3169   1.404   3.329   3.258
  849SOL     OW 3170   0.448   2.256   3.336
  849SOL    HW1 3171   0.525   2.196   3.356
  849SOL    HW2 3172   0.364   2.215   3.370
  850SOL     OW 3173   1.616   2.315   2.604
  850SOL    HW1 3174   1.536   2.333   2.547
  850SOL    HW2 3175   1.634   2.394   2.663
  851SOL     OW 3176   0.231   3.570   2.335
  851SOL    HW1 3177   0.251   3.651   2.390
  851SOL    HW2 3178   0.299   3.562   2.262
  852SOL     OW 3179   1.134   3.202   3.553
  852SOL    HW1 3180   1.197   3.188   3.629
  852SOL    HW2 3181   1.073   3.123   3.546
  853SOL     OW 3182   0.235   3.293   2.377
  853SOL    HW1 3183   0.221   3.392   2.375
  853SOL    HW2 3184   0.168   3.251   2.437
  854SOL     OW 3185   0.235   2.944   2.756
  854SOL    HW1 3186   0.256   2.851   2.785
  854SOL    HW2 3187   0.190   2.993   2.831
  855SOL     OW 3188   0.612   3.654   3.294
  855SOL    HW1 3189   0.525   3.631   3.338
  855SOL    HW2 3190   0.639   3.747   3.319
  856SOL     OW 3191   0.592   2.845   1.995
  856SOL    HW1 3192   0.633   2.901   1.922
  856SOL    HW2 3193   0.629   2.872   2.083
  857SOL     OW 3194   1.591   1.986   3.334
  857SOL    HW1 3195   1.589   2.069   3.278
  857SOL    HW2 3196   1.590   2.012   3.431
  858SOL     OW 3197   0.133   2.502   2.426
  858SOL    HW1 3198   0.082   2.418   2.446
  858SOL    HW2 3199   0.117   2.568   2.499
  859SOL     OW 3200   1.845   3.637   2.197
  859SOL    HW1 3201   1.898   3.595   2.270
  859SOL    HW2 3202   1.898   3.710   2.154
  860SOL     OW 3203   0.023   3.447   1.993
  860SOL    HW1 3204   0.008   3.353   2.022
  860SOL    HW2 3205  -0.008   3.509   2.065
  861SOL     OW 3206   1.692   2.782   2.503
  861SOL    HW1 3207   1.775   2.732   2.479
  861SOL    HW2 3208   1.662   2.836   2.424
  862SOL     OW 3209   1.640   2.969   2.297
  862SOL    HW1 3210   1.726   2.973   2.246
  862SOL    HW2 3211   1.643   3.034   2.373
  863SOL     OW 3212   0.132   2.615   3.455
  863SOL    HW1 3213   0.232   2.620   3.458
  863SOL    HW2 3214   0.095   2.701   3.420
  864SOL     OW 3215   0.609   3.245   2.596
  864SOL    HW1 3216   0.563   3.158   2.609
  864SOL    HW2 3217   0.596   3.277   2.502
  865SOL     OW 3218   1.343   3.122   3.288
  865SOL    HW1 3219   1.355   3.043   3.228
  865SOL    HW2 3220   1.380   3.101   3.379
  866SOL     OW 3221   0.807   1.858   2.362
  866SOL    HW1 3222   0.856   1.945   2.358
  866SOL    HW2 3223   0.710   1.876   2.377
  867SOL     OW 3224   0.188   2.794   3.155
  867SOL    HW1 3225   0.282   2.764   3.135
  867SOL    HW2 3226   0.130   2.775   3.076
  868SOL     OW 3227   1.537   2.855   2.060
  868SOL    HW1 3228   1.460   2.793   2.077
  868SOL    HW2 3229   1.572   2.890   2.146
  869SOL     OW 3230   1.185   3.665   3.476
  869SOL    HW1 3231   1.221   3.717   3.398
  869SOL    HW2 3232   1.194   3.567   3.456
  870SOL     OW 3233   0.345   2.123   3.621
  870SOL    HW1 3234   0.406   2.186   3.669
  870SOL    HW2 3235   0.260   2.112   3.673
  871SOL     OW 3236   1.458   3.282   2.822
  871SOL    HW1 3237   1.408   3.287   2.908
  871SOL    HW2 3238   1.449   3.190   2.784
  872SOL     OW 3239   1.660   3.593   2.441
  872SOL    HW1 3240   1.634   3.573   2.347
  872SOL    HW2 3241   1.631   3.519   2.501
  873SOL     OW 3242   0.598   2.588   2.131
  873SOL    HW1 3243   0.600   2.668   2.070
  873SOL    HW2 3244   0.527   2.601   2.200
  874SOL     OW 3245   1.278   2.208   2.798
  874SOL    HW1 3246   1.202   2.149   2.772
  874SOL    HW2 3247   1.338   2.159   2.861
  875SOL     OW 3248   1.586   3.532   2.168
  875SOL    HW1 3249   1.679   3.569   2.166
  875SOL    HW2 3250   1.556   3.513   2.074
  876SOL     OW 3251   0.787   2.483   3.315
  876SOL    HW1 3252   0.762   2.458   3.408
  876SOL    HW2 3253   0.751   2.414   3.251
  877SOL     OW 3254   1.393   2.331   3.539
  877SOL    HW1 3255   1.385   2.380   3.626
  877SOL    HW2 3256   1.459   2.257   3.548
  878SOL     OW 3257   0.955   2.751   3.437
  878SOL    HW1 3258   1.012   2.673   3.408
  878SOL    HW2 3259   0.929   2.805   3.357
  879SOL     OW 3260   1.056   2.558   2.292
  879SOL    HW1 3261   1.070   2.554   2.391
  879SOL    HW2 3262   0.967   2.518   2.269
  880SOL     OW 3263   0.095   2.683   2.629
  880SOL    HW1 3264   0.181   2.664   2.678
  880SOL    HW2 3265   0.067   2.777   2.647
  881SOL     OW 3266   0.134   3.723   3.444
  881SOL    HW1 3267   0.129   3.691   3.538
  881SOL    HW2 3268   0.047   3.705   3.398
  882SOL     OW 3269   1.700   2.436   3.688
  882SOL    HW1 3270   1.668   2.519   3.641
  882SOL    HW2 3271   1.735   2.371   3.621
  883SOL     OW 3272   1.378   2.999   2.405
  883SOL    HW1 3273   1.459   2.981   2.351
  883SOL    HW2 3274   1.328   3.076   2.366
  884SOL     OW 3275   0.536   2.050   2.757
  884SOL    HW1 3276   0.545   2.070   2.854
  884SOL    HW2 3277   0.557   2.132   2.704
  885SOL     OW 3278   1.007   3.315   2.339
  885SOL    HW1 3279   0.966   3.389   2.288
  885SOL    HW2 3280   0.995   3.331   2.437
  886SOL     OW 3281   0.364   3.668   2.709
  886SOL    HW1 3282   0.406   3.579   2.725
  886SOL    HW2 3283   0.428   3.740   2.736
  887SOL     OW 3284   1.809   2.919   2.726
  887SOL    HW1 3285   1.747   2.900   2.649
  887SOL    HW2 3286   1.755   2.938   2.808
  888SOL     OW 3287   1.227   3.403   3.379
  888SOL    HW1 3288   1.216   3.322   3.436
  888SOL    HW2 3289   1.173   3.392   3.295
  889SOL     OW 3290   0.337   2.811   2.114
  889SOL    HW1 3291   0.421   2.832   2.064
  889SOL    HW2 3292   0.294   2.730   2.075
  890SOL     OW 3293   1.478   2.605   2.589
  890SOL    HW1 3294   1.467   2.556   2.676
  890SOL    HW2 3295   1.558   2.664   2.594
  891SOL     OW 3296   0.459   3.120   3.594
  891SOL    HW1 3297   0.430   3.127   3.499
  891SOL    HW2 3298   0.379   3.124   3.654
  892SOL     OW 3299   1.119   3.641   2.093
  892SOL    HW1 3300   1.044   3.598   2.143
  892SOL    HW2 3301   1.145   3.583   2.015
  893SOL     OW 3302   0.189   2.176   3.392
  893SOL    HW1 3303   0.108   2.181   3.333
  893SOL    HW2 3304   0.197   2.084   3.430
  894SOL     OW 3305   1.617   3.241   1.927
  894SOL    HW1 3306   1.577   3.333   1.919
  894SOL    HW2 3307   1.545   3.173   1.919
  895SOL     OW 3308   0.480   3.588   2.190
  895SOL    HW1 3309   0.515   3.655   2.255
  895SOL    HW2 3310   0.552   3.562   2.126
  896SOL     OW 3311   1.401   1.972   2.292
  896SOL    HW1 3312   1.386   1.943   2.198
  896SOL    HW2 3313   1.499   1.977   2.310
  897SOL     OW 3314   0.280   3.661   3.094
  897SOL    HW1 3315   0.311   3.588   3.155
  897SOL    HW2 3316   0.235   3.622   3.014
  898SOL     OW 3317   0.935   3.562   2.764
  898SOL    HW1 3318   1.018   3.511   2.788
  898SOL    HW2 3319   0.887   3.515   2.690
  899SOL     OW 3320   0.394   2.552   2.337
  899SOL    HW1 3321   0.421   2.456   2.348
  899SOL    HW2 3322   0.297   2.562   2.357
  900SOL     OW 3323   1.538   2.085   3.592
  900SOL    HW1 3324   1.547   2.109   3.689
  900SOL    HW2 3325   1.464   2.019   3.581
  901SOL     OW 3326   0.634   1.989   1.966
  901SOL    HW1 3327   0.714   1.931   1.981
  901SOL    HW2 3328   0.581   1.953   1.889
  902SOL     OW 3329   0.767   2.136   3.616
  902SOL    HW1 3330   0.849   2.079   3.619
  902SOL    HW2 3331   0.710   2.117   3.696
  903SOL     OW 3332   0.876   3.375   3.050
  903SOL    HW1 3333   0.856   3.345   2.957
  903SOL    HW2 3334   0.919   3.300   3.101
  904SOL     OW 3335   1.341   2.453   3.297
  904SOL    HW1 3336   1.370   2.414   3.384
  904SOL    HW2 3337   1.379   2.545   3.287
  905SOL     OW 3338   0.813   3.257   2.797
  905SOL    HW1 3339   0.903   3.246   2.757
  905SOL    HW2 3340   0.744   3.257   2.725
  906SOL     OW 3341   0.923   2.380   2.764
  906SOL    HW1 3342   0.899   2.368   2.668
  906SOL    HW2 3343   0.960   2.294   2.800
  907SOL     OW 3344   0.545   1.927   2.365
  907SOL    HW1 3345   0.460   1.924   2.419
  907SOL    HW2 3346   0.543   2.008   2.306
  908SOL     OW 3347   1.420   3.054   1.910
  908SOL    HW1 3348   1.472   2.978   1.950
  908SOL    HW2 3349   1.332   3.061   1.957
  909SOL     OW 3350   0.310   1.883   2.016
  909SOL    HW1 3351   0.351   1.973   2.003
  909SOL    HW2 3352   0.367   1.829   2.077
  910SOL     OW 3353   0.934   2.101   2.354
  910SOL    HW1 3354   0.895   2.142   2.272
  910SOL    HW2 3355   1.033   2.111   2.353
  911SOL     OW 3356   1.081   2.540   3.321
  911SOL    HW1 3357   1.007   2.474   3.331
  911SOL    HW2 3358   1.168   2.491   3.314
  912SOL     OW 3359   1.228   3.434   2.656
  912SOL    HW1 3360   1.238   3.504   2.586
  912SOL    HW2 3361   1.303   3.439   2.721
  913SOL     OW 3362   0.460   3.008   2.601
  913SOL    HW1 3363   0.387   2.990   2.667
  913SOL    HW2 3364   0.427   2.989   2.509
  914SOL     OW 3365   1.266   3.657   2.472
  914SOL    HW1 3366   1.315   3.719   2.411
  914SOL    HW2 3367   1.192   3.706   2.518
  915SOL     OW 3368   1.033   2.416   1.870
  915SOL    HW1 3369   0.985   2.502   1.855
  915SOL    HW2 3370   1.093   2.424   1.949
  916SOL     OW 3371   0.071   2.432   3.255
  916SOL    HW1 3372   0.162   2.414   3.218
  916SOL    HW2 3373   0.076   2.503   3.324
  917SOL     OW 3374   0.554   2.081   3.030
  917SOL    HW1 3375   0.599   1.996   3.055
  917SOL    HW2 3376   0.465   2.087   3.076
  918SOL     OW 3377   0.865   2.324   2.506
  918SOL    HW1 3378   0.821   2.383   2.438
  918SOL    HW2 3379   0.890   2.237   2.464
  919SOL     OW 3380   1.035   1.901   2.602
  919SOL    HW1 3381   0.961   1.914   2.535
  919SOL    HW2 3382   1.005   1.836   2.672
  920SOL     OW 3383   1.438   3.027   2.720
  920SOL    HW1 3384   1.368   2.955   2.719
  920SOL    HW2 3385   1.470   3.044   2.626
  921SOL     OW 3386   1.468   2.466   2.842
  921SOL    HW1 3387   1.414   2.382   2.841
  921SOL    HW2 3388   1.532   2.464   2.919
  922SOL     OW 3389   1.840   2.683   2.251
  922SOL    HW1 3390   1.907   2.632   2.305
  922SOL    HW2 3391   1.815   2.629   2.171
  923SOL     OW 3392   0.488   3.273   2.029
  923SOL    HW1 3393   0.405   3.251   2.080
  923SOL    HW2 3394   0.470   3.264   1.931
  924SOL     OW 3395   1.665   3.129   2.513
  924SOL    HW1 3396   1.765   3.130   2.521
  924SOL    HW2 3397   1.629   3.220   2.531
  925SOL     OW 3398   1.391   2.433   1.931
  925SOL    HW1 3399   1.330   2.416   2.009
  925SOL    HW2 3400   1.484   2.405   1.956
  926SOL     OW 3401   0.530   2.127   2.179
  926SOL    HW1 3402   0.568   2.070   2.106
  926SOL    HW2 3403   0.505   2.216   2.141
  927SOL     OW 3404   1.756   3.101   3.429
  927SOL    HW1 3405   1.846   3.062   3.410
  927SOL    HW2 3406   1.768   3.193   3.467
  928SOL     OW 3407   1.611   3.490   3.514
  928SOL    HW1 3408   1.600   3.525   3.421
  928SOL    HW2 3409   1.698   3.441   3.521
  929SOL     OW 3410   1.635   2.962   2.942
  929SOL    HW1 3411   1.635   3.029   3.016
  929SOL    HW2 3412   1.555   2.976   2.884
  930SOL     OW 3413   0.980   2.980   3.581
  930SOL    HW1 3414   0.884   2.996   3.605
  930SOL    HW2 3415   0.988   2.894   3.531
  931SOL     OW 3416   0.716   2.912   2.234
  931SOL    HW1 3417   0.685   2.908   2.329
  931SOL    HW2 3418   0.803   2.864   2.226
  932SOL     OW 3419   0.426   2.667   3.108
  932SOL    HW1 3420   0.497   2.682   3.176
  932SOL    HW2 3421   0.380   2.581   3.125
  933SOL     OW 3422   0.087   3.433   3.143
  933SOL    HW1 3423   0.046   3.507   3.196
  933SOL    HW2 3424   0.171   3.403   3.187
  934SOL     OW 3425   0.357   2.964   2.355
  934SOL    HW1 3426   0.357   3.052   2.308
  934SOL    HW2 3427   0.349   2.890   2.288
  935SOL     OW 3428   0.552   2.405   2.726
  935SOL    HW1 3429   0.566   2.463   2.646
  935SOL    HW2 3430   0.618   2.430   2.797
  936SOL     OW 3431   1.265   3.220   2.297
  936SOL    HW1 3432   1.319   3.303   2.313
  936SOL    HW2 3433   1.168   3.242   2.305
  937SOL     OW 3434   1.583   2.487   2.338
  937SOL    HW1 3435   1.534   2.542   2.405
  937SOL    HW2 3436   1.635   2.547   2.277
  938SOL     OW 3437   0.357   3.371   3.182
  938SOL    HW1 3438   0.338   3.339   3.089
  938SOL    HW2 3439   0.453   3.397   3.190
  939SOL     OW 3440   0.412   2.603   3.462
  939SOL    HW1 3441   0.472   2.654   3.401
  939SOL    HW2 3442   0.450   2.513   3.480
  940SOL     OW 3443   1.599   2.644   3.543
  940SOL    HW1 3444   1.507   2.684   3.541
  940SOL    HW2 3445   1.656   2.686   3.472
  941SOL     OW 3446   0.999   1.985   3.608
  941SOL    HW1 3447   1.052   2.068   3.588
  941SOL    HW2 3448   1.051   1.904   3.580
  942SOL     OW 3449   0.500   1.903   3.604
  942SOL    HW1 3450   0.459   1.838   3.539
  942SOL    HW2 3451   0.441   1.983   3.612
  943SOL     OW 3452   0.587   2.737   2.891
  943SOL    HW1 3453   0.621   2.830   2.886
  943SOL    HW2 3454   0.528   2.727   2.971
  944SOL     OW 3455   1.356   2.721   2.893
  944SOL    HW1 3456   1.272   2.717   2.838
  944SOL    HW2 3457   1.401   2.632   2.892
  945SOL     OW 3458   1.212   2.396   2.137
  945SOL    HW1 3459   1.227   2.315   2.195
  945SOL    HW2 3460   1.164   2.466   2.189
  946SOL     OW 3461   0.724   2.495   2.920
  946SOL    HW1 3462   0.800   2.473   2.859
  946SOL    HW2 3463   0.692   2.588   2.900
  947SOL     OW 3464   1.730   2.820   3.715
  947SOL    HW1 3465   1.685   2.760   3.649
  947SOL    HW2 3466   1.672   2.832   3.795
  948SOL     OW 3467   0.299   1.929   2.482
  948SOL    HW1 3468   0.285   2.025   2.507
  948SOL    HW2 3469   0.314   1.875   2.565
  949SOL     OW 3470   1.617   2.236   2.232
  949SOL    HW1 3471   1.643   2.167   2.300
  949SOL    HW2 3472   1.591   2.321   2.279
  950SOL     OW 3473   1.026   2.623   2.825
  950SOL    HW1 3474   1.027   2.643   2.923
  950SOL    HW2 3475   0.994   2.529   2.811
  951SOL     OW 3476   0.985   3.427   3.574
  951SOL    HW1 3477   0.965   3.474   3.489
  951SOL    HW2 3478   1.030   3.340   3.555
  952SOL     OW 3479   1.857   3.372   3.468
  952SOL    HW1 3480   1.870   3.391   3.371
  952SOL    HW2 3481   1.943   3.389   3.517
  953SOL     OW 3482   0.352   2.777   3.665
  953SOL    HW1 3483   0.434   2.801   3.717
  953SOL    HW2 3484   0.377   2.711   3.594
  954SOL     OW 3485   1.530   2.131   1.993
  954SOL    HW1 3486   1.461   2.063   2.016
  954SOL    HW2 3487   1.564   2.174   2.076
  955SOL     OW 3488   1.301   2.691   1.900
  955SOL    HW1 3489   1.338   2.598   1.900
  955SOL    HW2 3490   1.318   2.734   1.812
  956SOL     OW 3491   1.058   3.210   2.698
  956SOL    HW1 3492   1.066   3.125   2.645
  956SOL    HW2 3493   1.130   3.274   2.670
  957SOL     OW 3494   0.329   2.668   2.790
  957SOL    HW1 3495   0.425   2.695   2.794
  957SOL    HW2 3496   0.316   2.582   2.841
  958SOL     OW 3497   0.333   2.365   2.876
  958SOL    HW1 3498   0.296   2.276   2.849
  958SOL    HW2 3499   0.412   2.388   2.819
  959SOL     OW 3500   1.130   2.229   3.551
  959SOL    HW1 3501   1.083   2.295   3.610
  959SOL    HW2 3502   1.221   2.263   3.528
  960SOL     OW 3503   0.107   3.650   2.795
  960SOL    HW1 3504   0.046   3.627   2.720
  960SOL    HW2 3505   0.200   3.663   2.760
  961SOL     OW 3506   0.503   3.437   2.766
  961SOL    HW1 3507   0.571   3.505   2.792
  961SOL    HW2 3508   0.545   3.368   2.707
  962SOL     OW 3509   0.990   2.655   3.092
  962SOL    HW1 3510   1.042   2.625   3.171
  962SOL    HW2 3511   0.895   2.623   3.101
  963SOL     OW 3512   0.059   2.431   2.968
  963SOL    HW1 3513   0.149   2.391   2.951
  963SOL    HW2 3514   0.037   2.422   3.065
  964SOL     OW 3515   0.171   2.382   3.588
  964SOL    HW1 3516   0.216   2.319   3.526
  964SOL    HW2 3517   0.148   2.467   3.540
  965SOL     OW 3518   1.373   2.801   3.521
  965SOL    HW1 3519   1.401   2.898   3.525
  965SOL    HW2 3520   1.374   2.771   3.426
  966SOL     OW 3521   0.815   2.428   2.209
  966SOL    HW1 3522   0.828   2.368   2.130
  966SOL    HW2 3523   0.736   2.488   2.193
  967SOL     OW 3524   1.645   2.466   3.048
  967SOL    HW1 3525   1.625   2.412   3.129
  967SOL    HW2 3526   1.736   2.441   3.013
  968SOL     OW 3527   0.283   3.419   3.609
  968SOL    HW1 3528   0.227   3.491   3.650
  968SOL    HW2 3529   0.247   3.329   3.635
  969SOL     OW 3530   0.689   2.317   3.124
  969SOL    HW1 3531   0.640   2.236   3.091
  969SOL    HW2 3532   0.697   2.383   3.049
  970SOL     OW 3533   0.929   3.539   3.327
  970SOL    HW1 3534   0.900   3.504   3.238
  970SOL    HW2 3535   0.926   3.639   3.325
  971SOL     OW 3536   0.466   2.359   2.055
  971SOL    HW1 3537   0.528   2.435   2.076
  971SOL    HW2 3538   0.374   2.395   2.037
  972SOL     OW 3539   1.344   2.906   3.091
  972SOL    HW1 3540   1.362   2.842   3.017
  972SOL    HW2 3541   1.259   2.955   3.072
  973SOL     OW 3542   1.299   2.724   2.168
  973SOL    HW1 3543   1.222   2.686   2.219
  973SOL    HW2 3544   1.284   2.710   2.070
  974SOL     OW 3545   1.751   3.605   3.002
  974SOL    HW1 3546   1.826   3.643   2.947
  974SOL    HW2 3547   1.742   3.507   2.982
  975SOL     OW 3548   1.250   3.598   2.976
  975SOL    HW1 3549   1.335   3.615   2.926
  975SOL    HW2 3550   1.255   3.509   3.022
  976SOL     OW 3551   0.680   3.529   3.588
  976SOL    HW1 3552   0.620   3.609   3.591
  976SOL    HW2 3553   0.744   3.538   3.512
  977SOL     OW 3554   1.718   2.001   2.376
  977SOL    HW1 3555   1.788   1.971   2.312
  977SOL    HW2 3556   1.687   1.923   2.431
  978SOL     OW 3557   1.400   3.445   2.351
  978SOL    HW1 3558   1.461   3.473   2.277
  978SOL    HW2 3559   1.346   3.524   2.381
  979SOL     OW 3560   0.133   3.645   3.705
  979SOL    HW1 3561   0.085   3.575   3.758
  979SOL    HW2 3562   0.191   3.700   3.766
  980SOL     OW 3563   1.279   2.786   2.532
  980SOL    HW1 3564   1.354   2.720   2.543
  980SOL    HW2 3565   1.311   2.863   2.478
  981SOL     OW 3566   0.815   3.132   3.287
  981SOL    HW1 3567   0.795   3.176   3.375
  981SOL    HW2 3568   0.736   3.140   3.227
  982SOL     OW 3569   0.671   3.476   2.017
  982SOL    HW1 3570   0.685   3.492   1.919
  982SOL    HW2 3571   0.617   3.393   2.031
  983SOL     OW 3572   1.624   3.593   3.252
  983SOL    HW1 3573   1.676   3.594   3.167
  983SOL    HW2 3574   1.613   3.687   3.285
  984SOL     OW 3575   0.263   2.180   2.576
  984SOL    HW1 3576   0.179   2.226   2.546
  984SOL    HW2 3577   0.256   2.157   2.673
  985SOL     OW 3578   1.205   3.472   1.892
  985SOL    HW1 3579   1.187   3.383   1.935
  985SOL    HW2 3580   1.141   3.486   1.817
  986SOL     OW 3581   1.491   3.489   1.901
  986SOL    HW1 3582   1.391   3.487   1.892
  986SOL    HW2 3583   1.533   3.496   1.810
  987SOL     OW 3584   0.355   3.152   3.353
  987SOL    HW1 3585   0.357   3.238   3.301
  987SOL    HW2 3586   0.283   3.092   3.316
  988SOL     OW 3587   1.634   3.153   3.149
  988SOL    HW1 3588   1.678   3.133   3.236
  988SOL    HW2 3589   1.560   3.218   3.162
  989SOL     OW 3590   1.051   2.966   2.570
  989SOL    HW1 3591   0.978   2.915   2.615
  989SOL    HW2 3592   1.119   2.902   2.533
  990SOL     OW 3593   0.600   3.348   2.345
  990SOL    HW1 3594   0.648   3.298   2.274
  990SOL    HW2 3595   0.534   3.410   2.303
  991SOL     OW 3596   1.730   2.246   3.237
  991SOL    HW1 3597   1.799   2.318   3.241
  991SOL    HW2 3598   1.753   2.182   3.164
  992SOL     OW 3599   0.116   2.907   3.627
  992SOL    HW1 3600   0.043   2.839   3.623
  992SOL    HW2 3601   0.204   2.860   3.636
  993SOL     OW 3602   0.676   2.059   3.363
  993SOL    HW1 3603   0.756   2.082   3.307
  993SOL    HW2 3604   0.696   2.080   3.458
  994SOL     OW 3605   1.434   2.718   3.265
  994SOL    HW1 3606   1.384   2.782   3.207
  994SOL    HW2 3607   1.531   2.718   3.240
  995SOL     OW 3608   0.617   2.698   3.293
  995SOL    HW1 3609   0.665   2.786   3.296
  995SOL    HW2 3610   0.684   2.624   3.302
  996SOL     OW 3611   1.491   3.639   2.846
  996SOL    HW1 3612   1.510   3.694   2.765
  996SOL    HW2 3613   1.577   3.622   2.896
  997SOL     OW 3614   0.720   2.424   3.569
  997SOL    HW1 3615   0.760   2.495   3.627
  997SOL    HW2 3616   0.755   2.335   3.596
  998SOL     OW 3617   1.479   3.058   3.513
  998SOL    HW1 3618   1.467   3.072   3.611
  998SOL    HW2 3619   1.575   3.073   3.488
  999SOL     OW 3620   0.381   3.601   3.425
  999SOL    HW1 3621   0.294   3.649   3.411
  999SOL    HW2 3622   0.364   3.517   3.478
 1000SOL     OW 3623   1.676   2.743   3.116
 1000SOL    HW1 3624   1.663   2.653   3.075
 1000SOL    HW2 3625   1.662   2.813   3.046
 1001SOL     OW 3626   1.235   2.193   2.338
 1001SOL    HW1 3627   1.296   2.115   2.323
 1001SOL    HW2 3628   1.265   2.245   2.418
 1002SOL     OW 3629   0.591   2.601   2.527
 1002SOL    HW1 3630   0.631   2.692   2.518
 1002SOL    HW2 3631   0.516   2.591   2.461
 1003SOL     OW 3632   1.756   2.227   3.510
 1003SOL    HW1 3633   1.743   2.238   3.411
 1003SOL    HW2 3634   1.686   2.166   3.546
 1004SOL     OW 3635   1.743   2.794   3.374
 1004SOL    HW1 3636   1.753   2.891   3.396
 1004SOL    HW2 3637   1.732   2.783   3.275
 1005SOL     OW 3638   0.831   3.251   1.881
 1005SOL    HW1 3639   0.817   3.273   1.977
 1005SOL    HW2 3640   0.874   3.329   1.835
 1006SOL     OW 3641   0.661   3.656   2.807
 1006SOL    HW1 3642   0.638   3.751   2.784
 1006SOL    HW2 3643   0.760   3.643   2.801
 1007SOL     OW 3644   0.867   2.827   2.717
 1007SOL    HW1 3645   0.921   2.754   2.759
 1007SOL    HW2 3646   0.818   2.878   2.787
 1008SOL     OW 3647   1.854   3.413   2.712
 1008SOL    HW1 3648   1.784   3.411   2.641
 1008SOL    HW2 3649   1.821   3.366   2.793
 1009SOL     OW 3650   0.212   3.160   3.718
 1009SOL    HW1 3651   0.169   3.081   3.675
 1009SOL    HW2 3652   0.191   3.160   3.816
 1010SOL     OW 3653   0.099   3.104   2.525
 1010SOL    HW1 3654   0.081   3.047   2.605
 1010SOL    HW2 3655   0.163   3.058   2.464
 1011SOL     OW 3656   0.675   3.266   3.488
 1011SOL    HW1 3657   0.595   3.216   3.521
 1011SOL    HW2 3658   0.675   3.358   3.527
 1012SOL     OW 3659   0.437   2.291   2.387
 1012SOL    HW1 3660   0.466   2.220   2.324
 1012SOL    HW2 3661   0.382   2.251   2.461
 1013SOL     OW 3662   1.710   3.344   2.948
 1013SOL    HW1 3663   1.621   3.325   2.907
 1013SOL    HW2 3664   1.720   3.290   3.032
 1014SOL     OW 3665   0.325   2.411   3.150
 1014SOL    HW1 3666   0.380   2.359   3.215
 1014SOL    HW2 3667   0.351   2.386   3.057
 1015SOL     OW 3668   0.822   3.445   2.544
 1015SOL    HW1 3669   0.821   3.491   2.455
 1015SOL    HW2 3670   0.744   3.382   2.550
 1016SOL     OW 3671   1.436   2.089   2.985
 1016SOL    HW1 3672   1.458   1.993   3.003
 1016SOL    HW2 3673   1.383   2.126   3.061
 1017SOL     OW 3674   0.770   3.198   2.177
 1017SOL    HW1 3675   0.737   3.103   2.179
 1017SOL    HW2 3676   0.858   3.203   2.224
 1018SOL     OW 3677   0.625   3.423   3.147
 1018SOL    HW1 3678   0.623   3.508   3.199
 1018SOL    HW2 3679   0.715   3.412   3.105
 1019SOL     OW 3680   1.355   1.907   2.027
 1019SOL    HW1 3681   1.389   1.852   1.952
 1019SOL    HW2 3682   1.268   1.870   2.060
 1020SOL     OW 3683   1.304   2.333   2.558
 1020SOL    HW1 3684   1.245   2.413   2.557
 1020SOL    HW2 3685   1.299   2.288   2.647
 1021SOL     OW 3686   1.581   2.065   2.735
 1021SOL    HW1 3687   1.531   2.087   2.819
 1021SOL    HW2 3688   1.597   2.149   2.683
 1022SOL     OW 3689   0.880   3.515   2.205
 1022SOL    HW1 3690   0.808   3.493   2.140
 1022SOL    HW2 3691   0.852   3.594   2.261
 1023SOL     OW 3692   0.227   2.473   3.846
 1023SOL    HW1 3693   0.137   2.473   3.890
 1023SOL    HW2 3694   0.217   2.452   3.749
 1024SOL     OW 3695   0.213   2.128   4.724
 1024SOL    HW1 3696   0.255   2.090   4.807
 1024SOL    HW2 3697   0.136   2.071   4.696
 1025SOL     OW 3698   0.553   3.119   4.898
 1025SOL    HW1 3699   0.476   3.163   4.853
 1025SOL    HW2 3700   0.619   3.189   4.927
 1026SOL     OW 3701   1.558   3.372   4.429
 1026SOL    HW1 3702   1.514   3.357   4.518
 1026SOL    HW2 3703   1.488   3.385   4.359
 1027SOL     OW 3704   1.129   2.567   4.423
 1027SOL    HW1 3705   1.185   2.648   4.405
 1027SOL    HW2 3706   1.082   2.578   4.511
 1028SOL     OW 3707   1.763   2.470   3.950
 1028SOL    HW1 3708   1.744   2.461   3.853
 1028SOL    HW2 3709   1.734   2.387   3.998
 1029SOL     OW 3710   0.751   3.004   4.753
 1029SOL    HW1 3711   0.676   3.031   4.814
 1029SOL    HW2 3712   0.793   3.085   4.713
 1030SOL     OW 3713   0.685   2.866   4.377
 1030SOL    HW1 3714   0.756   2.853   4.446
 1030SOL    HW2 3715   0.610   2.919   4.416
 1031SOL     OW 3716   0.350   3.267   4.780
 1031SOL    HW1 3717   0.261   3.250   4.738
 1031SOL    HW2 3718   0.398   3.337   4.728
 1032SOL     OW 3719   1.613   2.312   4.462
 1032SOL    HW1 3720   1.525   2.327   4.416
 1032SOL    HW2 3721   1.632   2.391   4.521
 1033SOL     OW 3722   0.233   3.570   4.197
 1033SOL    HW1 3723   0.251   3.652   4.251
 1033SOL    HW2 3724   0.297   3.566   4.120
 1034SOL     OW 3725   0.242   3.300   4.261
 1034SOL    HW1 3726   0.227   3.398   4.247
 1034SOL    HW2 3727   0.168   3.263   4.318
 1035SOL     OW 3728   0.232   2.940   4.608
 1035SOL    HW1 3729   0.248   2.855   4.659
 1035SOL    HW2 3730   0.190   3.008   4.669
 1036SOL     OW 3731   0.589   2.844   3.854
 1036SOL    HW1 3732   0.632   2.899   3.782
 1036SOL    HW2 3733   0.627   2.871   3.943
 1037SOL     OW 3734   0.133   2.489   4.307
 1037SOL    HW1 3735   0.044   2.446   4.293
 1037SOL    HW2 3736   0.124   2.567   4.369
 1038SOL     OW 3737   1.844   3.634   4.057
 1038SOL    HW1 3738   1.901   3.596   4.130
 1038SOL    HW2 3739   1.896   3.705   4.008
 1039SOL     OW 3740   0.029   3.450   3.860
 1039SOL    HW1 3741  -0.003   3.357   3.879
 1039SOL    HW2 3742  -0.006   3.512   3.930
 1040SOL     OW 3743   1.691   2.783   4.363
 1040SOL    HW1 3744   1.775   2.733   4.343
 1040SOL    HW2 3745   1.664   2.836   4.283
 1041SOL     OW 3746   1.647   2.964   4.154
 1041SOL    HW1 3747   1.736   2.972   4.109
 1041SOL    HW2 3748   1.641   3.031   4.228
 1042SOL     OW 3749   0.607   3.245   4.457
 1042SOL    HW1 3750   0.560   3.158   4.470
 1042SOL    HW2 3751   0.592   3.277   4.363
 1043SOL     OW 3752   0.810   1.863   4.243
 1043SOL    HW1 3753   0.850   1.945   4.202
 1043SOL    HW2 3754   0.711   1.875   4.253
 1044SOL     OW 3755   0.203   2.788   5.010
 1044SOL    HW1 3756   0.294   2.760   4.978
 1044SOL    HW2 3757   0.138   2.780   4.935
 1045SOL     OW 3758   1.536   2.855   3.924
 1045SOL    HW1 3759   1.461   2.792   3.945
 1045SOL    HW2 3760   1.574   2.891   4.009
 1046SOL     OW 3761   1.473   3.278   4.678
 1046SOL    HW1 3762   1.396   3.302   4.738
 1046SOL    HW2 3763   1.462   3.184   4.645
 1047SOL     OW 3764   1.658   3.595   4.303
 1047SOL    HW1 3765   1.631   3.574   4.209
 1047SOL    HW2 3766   1.630   3.520   4.363
 1048SOL     OW 3767   0.600   2.588   3.995
 1048SOL    HW1 3768   0.610   2.668   3.935
 1048SOL    HW2 3769   0.529   2.606   4.062
 1049SOL     OW 3770   1.280   2.209   4.660
 1049SOL    HW1 3771   1.184   2.180   4.659
 1049SOL    HW2 3772   1.329   2.157   4.730
 1050SOL     OW 3773   1.587   3.529   4.031
 1050SOL    HW1 3774   1.678   3.571   4.029
 1050SOL    HW2 3775   1.556   3.513   3.937
 1051SOL     OW 3776   1.041   2.568   4.154
 1051SOL    HW1 3777   1.067   2.558   4.250
 1051SOL    HW2 3778   0.965   2.506   4.134
 1052SOL     OW 3779   0.097   2.687   4.493
 1052SOL    HW1 3780   0.180   2.664   4.543
 1052SOL    HW2 3781   0.076   2.784   4.505
 1053SOL     OW 3782   0.076   3.619   0.285
 1053SOL    HW1 3783   0.131   3.601   0.366
 1053SOL    HW2 3784   0.046   3.715   0.286
 1054SOL     OW 3785   0.547   2.046   4.622
 1054SOL    HW1 3786   0.537   2.073   4.718
 1054SOL    HW2 3787   0.558   2.127   4.565
 1055SOL     OW 3788   0.362   3.667   4.573
 1055SOL    HW1 3789   0.405   3.578   4.587
 1055SOL    HW2 3790   0.428   3.740   4.596
 1056SOL     OW 3791   1.809   2.915   4.590
 1056SOL    HW1 3792   1.750   2.900   4.511
 1056SOL    HW2 3793   1.753   2.935   4.671
 1057SOL     OW 3794   0.338   2.811   3.977
 1057SOL    HW1 3795   0.422   2.833   3.927
 1057SOL    HW2 3796   0.293   2.733   3.934
 1058SOL     OW 3797   1.475   2.611   4.452
 1058SOL    HW1 3798   1.466   2.552   4.533
 1058SOL    HW2 3799   1.560   2.662   4.458
 1059SOL     OW 3800   1.120   3.637   3.957
 1059SOL    HW1 3801   1.045   3.594   4.007
 1059SOL    HW2 3802   1.143   3.582   3.877
 1060SOL     OW 3803   1.642   3.252   3.808
 1060SOL    HW1 3804   1.593   3.338   3.794
 1060SOL    HW2 3805   1.578   3.175   3.801
 1061SOL     OW 3806   0.473   3.598   4.043
 1061SOL    HW1 3807   0.510   3.661   4.112
 1061SOL    HW2 3808   0.546   3.569   3.982
 1062SOL     OW 3809   1.414   1.941   4.157
 1062SOL    HW1 3810   1.391   1.937   4.059
 1062SOL    HW2 3811   1.502   1.988   4.168
 1063SOL     OW 3812   0.277   3.653   4.935
 1063SOL    HW1 3813   0.295   3.575   4.995
 1063SOL    HW2 3814   0.239   3.620   4.848
 1064SOL     OW 3815   0.944   3.550   4.626
 1064SOL    HW1 3816   1.028   3.496   4.632
 1064SOL    HW2 3817   0.885   3.512   4.555
 1065SOL     OW 3818   0.394   2.551   4.200
 1065SOL    HW1 3819   0.420   2.455   4.208
 1065SOL    HW2 3820   0.297   2.562   4.224
 1066SOL     OW 3821   0.633   1.986   3.830
 1066SOL    HW1 3822   0.718   1.932   3.836
 1066SOL    HW2 3823   0.576   1.950   3.757
 1067SOL     OW 3824   0.808   3.248   4.650
 1067SOL    HW1 3825   0.902   3.246   4.615
 1067SOL    HW2 3826   0.744   3.252   4.574
 1068SOL     OW 3827   0.928   2.373   4.626
 1068SOL    HW1 3828   0.902   2.363   4.530
 1068SOL    HW2 3829   0.962   2.285   4.661
 1069SOL     OW 3830   0.547   1.927   4.227
 1069SOL    HW1 3831   0.462   1.924   4.279
 1069SOL    HW2 3832   0.547   2.008   4.168
 1070SOL     OW 3833   1.430   3.060   3.780
 1070SOL    HW1 3834   1.478   2.983   3.822
 1070SOL    HW2 3835   1.336   3.063   3.813
 1071SOL     OW 3836   0.317   1.860   3.875
 1071SOL    HW1 3837   0.324   1.958   3.889
 1071SOL    HW2 3838   0.374   1.812   3.942
 1072SOL     OW 3839   1.224   3.440   4.527
 1072SOL    HW1 3840   1.238   3.501   4.448
 1072SOL    HW2 3841   1.300   3.449   4.591
 1073SOL     OW 3842   0.463   3.006   4.466
 1073SOL    HW1 3843   0.388   2.988   4.529
 1073SOL    HW2 3844   0.434   2.986   4.372
 1074SOL     OW 3845   1.267   3.656   4.333
 1074SOL    HW1 3846   1.318   3.714   4.269
 1074SOL    HW2 3847   1.199   3.712   4.380
 1075SOL     OW 3848   1.030   2.422   3.725
 1075SOL    HW1 3849   0.973   2.502   3.705
 1075SOL    HW2 3850   1.088   2.442   3.804
 1076SOL     OW 3851   0.864   2.325   4.365
 1076SOL    HW1 3852   0.816   2.388   4.304
 1076SOL    HW2 3853   0.899   2.247   4.312
 1077SOL     OW 3854   1.002   1.910   4.472
 1077SOL    HW1 3855   0.944   1.896   4.392
 1077SOL    HW2 3856   0.992   1.834   4.535
 1078SOL     OW 3857   1.442   3.024   4.584
 1078SOL    HW1 3858   1.371   2.955   4.571
 1078SOL    HW2 3859   1.488   3.042   4.497
 1079SOL     OW 3860   1.469   2.463   4.703
 1079SOL    HW1 3861   1.414   2.380   4.703
 1079SOL    HW2 3862   1.533   2.460   4.780
 1080SOL     OW 3863   1.839   2.680   4.115
 1080SOL    HW1 3864   1.906   2.630   4.169
 1080SOL    HW2 3865   1.815   2.629   4.033
 1081SOL     OW 3866   0.489   3.276   3.886
 1081SOL    HW1 3867   0.414   3.249   3.947
 1081SOL    HW2 3868   0.460   3.266   3.791
 1082SOL     OW 3869   1.658   3.125   4.378
 1082SOL    HW1 3870   1.758   3.123   4.385
 1082SOL    HW2 3871   1.626   3.219   4.391
 1083SOL     OW 3872   1.396   2.431   3.799
 1083SOL    HW1 3873   1.354   2.406   3.886
 1083SOL    HW2 3874   1.494   2.412   3.803
 1084SOL     OW 3875   0.548   2.132   4.048
 1084SOL    HW1 3876   0.570   2.070   3.972
 1084SOL    HW2 3877   0.520   2.221   4.011
 1085SOL     OW 3878   1.630   2.964   4.798
 1085SOL    HW1 3879   1.627   3.031   4.873
 1085SOL    HW2 3880   1.549   2.974   4.741
 1086SOL     OW 3881   0.706   2.910   4.094
 1086SOL    HW1 3882   0.688   2.903   4.192
 1086SOL    HW2 3883   0.779   2.847   4.069
 1087SOL     OW 3884   0.441   2.665  -0.026
 1087SOL    HW1 3885   0.508   2.701   0.040
 1087SOL    HW2 3886   0.390   2.591   0.017
 1088SOL     OW 3887   0.378   2.955   4.217
 1088SOL    HW1 3888   0.371   3.045   4.174
 1088SOL    HW2 3889   0.363   2.884   4.148
 1089SOL     OW 3890   0.554   2.399   4.585
 1089SOL    HW1 3891   0.567   2.460   4.506
 1089SOL    HW2 3892   0.616   2.427   4.658
 1090SOL     OW 3893   1.271   3.305   4.854
 1090SOL    HW1 3894   1.341   3.311   4.926
 1090SOL    HW2 3895   1.224   3.217   4.862
 1091SOL     OW 3896   1.579   2.489   4.194
 1091SOL    HW1 3897   1.536   2.542   4.266
 1091SOL    HW2 3898   1.640   2.548   4.141
 1092SOL     OW 3899   0.586   2.736   4.749
 1092SOL    HW1 3900   0.619   2.830   4.749
 1092SOL    HW2 3901   0.531   2.720   4.831
 1093SOL     OW 3902   1.353   2.710   4.744
 1093SOL    HW1 3903   1.269   2.701   4.692
 1093SOL    HW2 3904   1.402   2.623   4.743
 1094SOL     OW 3905   0.722   2.493   4.774
 1094SOL    HW1 3906   0.803   2.471   4.720
 1094SOL    HW2 3907   0.695   2.588   4.757
 1095SOL     OW 3908   0.305   1.928   4.348
 1095SOL    HW1 3909   0.280   2.021   4.374
 1095SOL    HW2 3910   0.313   1.872   4.430
 1096SOL     OW 3911   1.614   2.235   4.095
 1096SOL    HW1 3912   1.646   2.168   4.161
 1096SOL    HW2 3913   1.590   2.320   4.142
 1097SOL     OW 3914   1.027   2.619   4.684
 1097SOL    HW1 3915   1.022   2.639   4.782
 1097SOL    HW2 3916   0.998   2.525   4.669
 1098SOL     OW 3917   1.530   2.132   3.855
 1098SOL    HW1 3918   1.459   2.065   3.878
 1098SOL    HW2 3919   1.566   2.174   3.939
 1099SOL     OW 3920   1.299   2.689   3.765
 1099SOL    HW1 3921   1.339   2.597   3.762
 1099SOL    HW2 3922   1.315   2.735   3.678
 1100SOL     OW 3923   1.063   3.205   4.569
 1100SOL    HW1 3924   1.068   3.124   4.511
 1100SOL    HW2 3925   1.128   3.274   4.536
 1101SOL     OW 3926   0.323   2.660   4.661
 1101SOL    HW1 3927   0.418   2.692   4.661
 1101SOL    HW2 3928   0.319   2.568   4.699
 1102SOL     OW 3929   0.324   2.381   4.722
 1102SOL    HW1 3930   0.292   2.286   4.719
 1102SOL    HW2 3931   0.409   2.389   4.671
 1103SOL     OW 3932   0.108   3.650   4.664
 1103SOL    HW1 3933   0.044   3.621   4.593
 1103SOL    HW2 3934   0.199   3.663   4.623
 1104SOL     OW 3935   0.502   3.438   4.629
 1104SOL    HW1 3936   0.572   3.504   4.656
 1104SOL    HW2 3937   0.542   3.367   4.571
 1105SOL     OW 3938   0.987   2.651   4.950
 1105SOL    HW1 3939   1.059   2.664   5.018
 1105SOL    HW2 3940   0.898   2.652   4.995
 1106SOL     OW 3941   0.081   2.443   4.862
 1106SOL    HW1 3942   0.133   2.388   4.797
 1106SOL    HW2 3943   0.012   2.385   4.907
 1107SOL     OW 3944   0.816   2.425   4.074
 1107SOL    HW1 3945   0.819   2.356   4.001
 1107SOL    HW2 3946   0.743   2.490   4.054
 1108SOL     OW 3947   1.654   2.462   4.901
 1108SOL    HW1 3948   1.634   2.394   4.971
 1108SOL    HW2 3949   1.743   2.443   4.860
 1109SOL     OW 3950   0.693   2.333   4.992
 1109SOL    HW1 3951   0.630   2.259   4.972
 1109SOL    HW2 3952   0.700   2.394   4.913
 1110SOL     OW 3953   0.463   2.364   3.926
 1110SOL    HW1 3954   0.529   2.437   3.946
 1110SOL    HW2 3955   0.376   2.405   3.898
 1111SOL     OW 3956   1.316   2.924   4.899
 1111SOL    HW1 3957   1.350   2.850   4.841
 1111SOL    HW2 3958   1.216   2.929   4.891
 1112SOL     OW 3959   1.290   2.724   4.032
 1112SOL    HW1 3960   1.219   2.670   4.079
 1112SOL    HW2 3961   1.282   2.712   3.934
 1113SOL     OW 3962   1.750   3.604   4.835
 1113SOL    HW1 3963   1.826   3.637   4.780
 1113SOL    HW2 3964   1.745   3.504   4.829
 1114SOL     OW 3965   0.082   3.132   4.731
 1114SOL    HW1 3966   0.087   3.130   4.831
 1114SOL    HW2 3967  -0.013   3.125   4.702
 1115SOL     OW 3968   1.722   1.999   4.231
 1115SOL    HW1 3969   1.804   1.978   4.178
 1115SOL    HW2 3970   1.692   1.917   4.279
 1116SOL     OW 3971   1.398   3.436   4.217
 1116SOL    HW1 3972   1.456   3.460   4.139
 1116SOL    HW2 3973   1.339   3.513   4.241
 1117SOL     OW 3974   1.287   2.792   4.388
 1117SOL    HW1 3975   1.356   2.724   4.410
 1117SOL    HW2 3976   1.316   2.845   4.308
 1118SOL     OW 3977   0.672   3.475   3.878
 1118SOL    HW1 3978   0.683   3.493   3.780
 1118SOL    HW2 3979   0.615   3.394   3.891
 1119SOL     OW 3980   1.653   3.630   0.084
 1119SOL    HW1 3981   1.705   3.627  -0.002
 1119SOL    HW2 3982   1.651   3.724   0.118
 1120SOL     OW 3983   1.845   2.040   4.686
 1120SOL    HW1 3984   1.875   1.947   4.666
 1120SOL    HW2 3985   1.750   2.052   4.656
 1121SOL     OW 3986   0.257   2.178   4.444
 1121SOL    HW1 3987   0.202   2.258   4.418
 1121SOL    HW2 3988   0.252   2.165   4.543
 1122SOL     OW 3989   1.205   3.471   3.752
 1122SOL    HW1 3990   1.186   3.385   3.800
 1122SOL    HW2 3991   1.138   3.484   3.679
 1123SOL     OW 3992   0.903   2.739   3.986
 1123SOL    HW1 3993   0.973   2.796   3.943
 1123SOL    HW2 3994   0.947   2.675   4.051
 1124SOL     OW 3995   1.493   3.487   3.763
 1124SOL    HW1 3996   1.394   3.484   3.755
 1124SOL    HW2 3997   1.534   3.493   3.672
 1125SOL     OW 3998   1.053   2.964   4.429
 1125SOL    HW1 3999   0.977   2.919   4.476
 1125SOL    HW2 4000   1.118   2.896   4.398
 1126SOL     OW 4001   1.025   2.105   4.671
 1126SOL    HW1 4002   1.016   2.045   4.591
 1126SOL    HW2 4003   1.013   2.050   4.754
 1127SOL     OW 4004   0.596   3.349   4.208
 1127SOL    HW1 4005   0.646   3.298   4.138
 1127SOL    HW2 4006   0.532   3.412   4.164
 1128SOL     OW 4007   1.731   2.252   0.062
 1128SOL    HW1 4008   1.808   2.293   0.111
 1128SOL    HW2 4009   1.759   2.163   0.026
 1129SOL     OW 4010   0.070   2.194   3.752
 1129SOL    HW1 4011  -0.023   2.174   3.720
 1129SOL    HW2 4012   0.107   2.271   3.701
 1130SOL     OW 4013   1.502   3.634   4.697
 1130SOL    HW1 4014   1.513   3.694   4.618
 1130SOL    HW2 4015   1.588   3.627   4.747
 1131SOL     OW 4016   1.690   2.740   4.959
 1131SOL    HW1 4017   1.655   2.651   4.929
 1131SOL    HW2 4018   1.662   2.811   4.894
 1132SOL     OW 4019   0.591   2.599   4.387
 1132SOL    HW1 4020   0.632   2.691   4.381
 1132SOL    HW2 4021   0.517   2.591   4.322
 1133SOL     OW 4022   1.756   2.788   0.212
 1133SOL    HW1 4023   1.806   2.875   0.215
 1133SOL    HW2 4024   1.724   2.772   0.119
 1134SOL     OW 4025   0.851   3.235   3.752
 1134SOL    HW1 4026   0.813   3.265   3.839
 1134SOL    HW2 4027   0.880   3.315   3.699
 1135SOL     OW 4028   0.663   3.658   4.677
 1135SOL    HW1 4029   0.637   3.750   4.649
 1135SOL    HW2 4030   0.760   3.644   4.662
 1136SOL     OW 4031   0.869   2.829   4.580
 1136SOL    HW1 4032   0.919   2.753   4.622
 1136SOL    HW2 4033   0.829   2.886   4.651
 1137SOL     OW 4034   1.854   3.420   4.578
 1137SOL    HW1 4035   1.793   3.412   4.499
 1137SOL    HW2 4036   1.819   3.364   4.653
 1138SOL     OW 4037   0.095   3.108   4.407
 1138SOL    HW1 4038   0.106   3.056   4.492
 1138SOL    HW2 4039   0.154   3.069   4.337
 1139SOL     OW 4040   0.429   2.288   4.247
 1139SOL    HW1 4041   0.470   2.219   4.188
 1139SOL    HW2 4042   0.383   2.243   4.323
 1140SOL     OW 4043   1.711   3.337   4.810
 1140SOL    HW1 4044   1.624   3.319   4.763
 1140SOL    HW2 4045   1.708   3.298   4.902
 1141SOL     OW 4046   0.814   3.453   4.410
 1141SOL    HW1 4047   0.846   3.469   4.317
 1141SOL    HW2 4048   0.736   3.390   4.409
 1142SOL     OW 4049   1.421   2.085   4.851
 1142SOL    HW1 4050   1.490   2.014   4.867
 1142SOL    HW2 4051   1.406   2.136   4.936
 1143SOL     OW 4052   0.753   3.196   4.043
 1143SOL    HW1 4053   0.723   3.101   4.046
 1143SOL    HW2 4054   0.848   3.203   4.074
 1144SOL     OW 4055   1.349   1.914   3.889
 1144SOL    HW1 4056   1.385   1.857   3.815
 1144SOL    HW2 4057   1.264   1.873   3.924
 1145SOL     OW 4058   1.320   2.336   4.423
 1145SOL    HW1 4059   1.249   2.406   4.413
 1145SOL    HW2 4060   1.302   2.282   4.505
 1146SOL     OW 4061   1.588   2.074   4.606
 1146SOL    HW1 4062   1.510   2.084   4.667
 1146SOL    HW2 4063   1.593   2.152   4.544
 1147SOL     OW 4064   0.882   3.516   4.066
 1147SOL    HW1 4065   0.808   3.493   4.003
 1147SOL    HW2 4066   0.853   3.590   4.127
 1148SOL     OW 4067   5.013   4.116   0.639
 1148SOL    HW1 4068   4.927   4.143   0.682
 1148SOL    HW2 4069   4.997   4.035   0.582
 1149SOL     OW 4070   1.131   4.423   0.707
 1149SOL    HW1 4071   1.187   4.503   0.683
 1149SOL    HW2 4072   1.076   4.444   0.788
 1150SOL     OW 4073   1.788   4.338   0.235
 1150SOL    HW1 4074   1.730   4.364   0.158
 1150SOL    HW2 4075   1.739   4.273   0.294
 1151SOL     OW 4076   0.726   4.855   1.024
 1151SOL    HW1 4077   0.663   4.897   1.090
 1151SOL    HW2 4078   0.763   4.926   0.964
 1152SOL     OW 4079   0.858   4.505   1.817
 1152SOL    HW1 4080   0.852   4.573   1.890
 1152SOL    HW2 4081   0.886   4.550   1.732
 1153SOL     OW 4082   0.679   4.726   0.655
 1153SOL    HW1 4083   0.753   4.715   0.721
 1153SOL    HW2 4084   0.613   4.792   0.690
 1154SOL     OW 4085   0.705   4.886   1.801
 1154SOL    HW1 4086   0.758   4.962   1.839
 1154SOL    HW2 4087   0.619   4.921   1.764
 1155SOL     OW 4088   0.446   4.129   1.493
 1155SOL    HW1 4089   0.528   4.072   1.486
 1155SOL    HW2 4090   0.365   4.071   1.499
 1156SOL     OW 4091   1.615   4.177   0.739
 1156SOL    HW1 4092   1.535   4.194   0.682
 1156SOL    HW2 4093   1.636   4.259   0.791
 1157SOL     OW 4094   0.567   4.700   0.150
 1157SOL    HW1 4095   0.631   4.730   0.079
 1157SOL    HW2 4096   0.602   4.728   0.240
 1158SOL     OW 4097   1.597   3.850   1.472
 1158SOL    HW1 4098   1.587   3.933   1.417
 1158SOL    HW2 4099   1.591   3.873   1.569
 1159SOL     OW 4100   0.133   4.366   0.565
 1159SOL    HW1 4101   0.085   4.280   0.581
 1159SOL    HW2 4102   0.116   4.430   0.640
 1160SOL     OW 4103   1.693   4.639   0.635
 1160SOL    HW1 4104   1.784   4.602   0.612
 1160SOL    HW2 4105   1.660   4.695   0.559
 1161SOL     OW 4106   1.645   4.844   0.459
 1161SOL    HW1 4107   1.707   4.837   0.381
 1161SOL    HW2 4108   1.690   4.893   0.533
 1162SOL     OW 4109   0.135   4.468   1.589
 1162SOL    HW1 4110   0.234   4.476   1.593
 1162SOL    HW2 4111   0.093   4.557   1.608
 1163SOL     OW 4112   1.324   4.965   1.411
 1163SOL    HW1 4113   1.333   4.877   1.366
 1163SOL    HW2 4114   1.348   4.956   1.508
 1164SOL     OW 4115   0.810   3.724   0.500
 1164SOL    HW1 4116   0.858   3.811   0.489
 1164SOL    HW2 4117   0.713   3.742   0.515
 1165SOL     OW 4118   0.193   4.692   1.270
 1165SOL    HW1 4119   0.279   4.642   1.262
 1165SOL    HW2 4120   0.127   4.655   1.204
 1166SOL     OW 4121   1.476   4.772   0.216
 1166SOL    HW1 4122   1.415   4.695   0.238
 1166SOL    HW2 4123   1.570   4.745   0.236
 1167SOL     OW 4124   0.330   3.990   1.736
 1167SOL    HW1 4125   0.407   4.047   1.765
 1167SOL    HW2 4126   0.264   3.982   1.811
 1168SOL     OW 4127   0.594   4.444   0.270
 1168SOL    HW1 4128   0.616   4.531   0.227
 1168SOL    HW2 4129   0.526   4.459   0.342
 1169SOL     OW 4130   1.311   4.058   0.912
 1169SOL    HW1 4131   1.222   4.017   0.894
 1169SOL    HW2 4132   1.354   4.011   0.990
 1170SOL     OW 4133   0.791   4.340   1.454
 1170SOL    HW1 4134   0.764   4.318   1.547
 1170SOL    HW2 4135   0.751   4.274   1.390
 1171SOL     OW 4136   1.395   4.193   1.679
 1171SOL    HW1 4137   1.390   4.243   1.766
 1171SOL    HW2 4138   1.462   4.120   1.687
 1172SOL     OW 4139   0.960   4.610   1.577
 1172SOL    HW1 4140   1.015   4.535   1.542
 1172SOL    HW2 4141   0.903   4.648   1.504
 1173SOL     OW 4142   1.044   4.420   0.432
 1173SOL    HW1 4143   1.061   4.412   0.531
 1173SOL    HW2 4144   0.963   4.367   0.408
 1174SOL     OW 4145   0.092   4.544   0.773
 1174SOL    HW1 4146   0.180   4.532   0.820
 1174SOL    HW2 4147   0.065   4.640   0.777
 1175SOL     OW 4148   1.696   4.296   1.829
 1175SOL    HW1 4149   1.667   4.376   1.777
 1175SOL    HW2 4150   1.741   4.231   1.768
 1176SOL     OW 4151   1.376   4.858   0.547
 1176SOL    HW1 4152   1.455   4.842   0.488
 1176SOL    HW2 4153   1.325   4.937   0.513
 1177SOL     OW 4154   0.540   3.910   0.894
 1177SOL    HW1 4155   0.549   3.930   0.991
 1177SOL    HW2 4156   0.551   3.995   0.841
 1178SOL     OW 4157   1.808   4.773   0.858
 1178SOL    HW1 4158   1.745   4.749   0.785
 1178SOL    HW2 4159   1.757   4.794   0.941
 1179SOL     OW 4160   0.320   4.675   0.264
 1179SOL    HW1 4161   0.406   4.697   0.219
 1179SOL    HW2 4162   0.260   4.627   0.200
 1180SOL     OW 4163   1.481   4.462   0.727
 1180SOL    HW1 4164   1.469   4.418   0.816
 1180SOL    HW2 4165   1.559   4.525   0.731
 1181SOL     OW 4166   0.199   4.012   1.478
 1181SOL    HW1 4167   0.119   4.072   1.476
 1181SOL    HW2 4168   0.193   3.951   1.557
 1182SOL     OW 4169   1.402   3.832   0.433
 1182SOL    HW1 4170   1.389   3.797   0.340
 1182SOL    HW2 4171   1.500   3.841   0.452
 1183SOL     OW 4172   0.392   4.411   0.473
 1183SOL    HW1 4173   0.419   4.316   0.488
 1183SOL    HW2 4174   0.296   4.423   0.496
 1184SOL     OW 4175   1.539   3.948   1.728
 1184SOL    HW1 4176   1.549   3.973   1.825
 1184SOL    HW2 4177   1.466   3.881   1.719
 1185SOL     OW 4178   0.611   3.837   0.112
 1185SOL    HW1 4179   0.709   3.821   0.118
 1185SOL    HW2 4180   0.580   3.820   0.019
 1186SOL     OW 4181   0.767   4.000   1.756
 1186SOL    HW1 4182   0.843   3.935   1.751
 1186SOL    HW2 4183   0.709   3.977   1.834
 1187SOL     OW 4184   1.341   4.312   1.436
 1187SOL    HW1 4185   1.372   4.275   1.523
 1187SOL    HW2 4186   1.377   4.404   1.424
 1188SOL     OW 4187   0.544   3.788   0.502
 1188SOL    HW1 4188   0.462   3.788   0.559
 1188SOL    HW2 4189   0.545   3.869   0.444
 1189SOL     OW 4190   0.316   3.807   0.217
 1189SOL    HW1 4191   0.391   3.847   0.164
 1189SOL    HW2 4192   0.342   3.715   0.246
 1190SOL     OW 4193   0.941   3.964   0.470
 1190SOL    HW1 4194   0.901   4.016   0.395
 1190SOL    HW2 4195   1.040   3.979   0.471
 1191SOL     OW 4196   1.081   4.402   1.454
 1191SOL    HW1 4197   1.005   4.339   1.468
 1191SOL    HW2 4198   1.167   4.351   1.451
 1192SOL     OW 4199   0.449   4.861   0.747
 1192SOL    HW1 4200   0.389   4.815   0.813
 1192SOL    HW2 4201   0.422   4.836   0.654
 1193SOL     OW 4202   0.992   4.316   0.029
 1193SOL    HW1 4203   1.010   4.370  -0.053
 1193SOL    HW2 4204   1.077   4.277   0.063
 1194SOL     OW 4205   0.072   4.275   1.411
 1194SOL    HW1 4206   0.149   4.268   1.348
 1194SOL    HW2 4207   0.084   4.355   1.470
 1195SOL     OW 4208   0.572   3.947   1.162
 1195SOL    HW1 4209   0.623   3.869   1.197
 1195SOL    HW2 4210   0.478   3.945   1.197
 1196SOL     OW 4211   0.876   4.186   0.642
 1196SOL    HW1 4212   0.818   4.240   0.581
 1196SOL    HW2 4213   0.895   4.098   0.600
 1197SOL     OW 4214   1.037   3.754   0.734
 1197SOL    HW1 4215   0.962   3.775   0.672
 1197SOL    HW2 4216   1.005   3.694   0.807
 1198SOL     OW 4217   1.441   4.868   0.872
 1198SOL    HW1 4218   1.365   4.808   0.848
 1198SOL    HW2 4219   1.455   4.935   0.798
 1199SOL     OW 4220   1.468   4.326   0.982
 1199SOL    HW1 4221   1.424   4.237   0.972
 1199SOL    HW2 4222   1.533   4.324   1.058
 1200SOL     OW 4223   1.889   4.555   0.420
 1200SOL    HW1 4224   1.925   4.471   0.461
 1200SOL    HW2 4225   1.837   4.532   0.338
 1201SOL     OW 4226   1.397   4.296   0.095
 1201SOL    HW1 4227   1.336   4.285   0.174
 1201SOL    HW2 4228   1.461   4.219   0.091
 1202SOL     OW 4229   0.539   3.992   0.322
 1202SOL    HW1 4230   0.569   3.929   0.251
 1202SOL    HW2 4231   0.511   4.078   0.281
 1203SOL     OW 4232   1.760   4.929   1.577
 1203SOL    HW1 4233   1.857   4.908   1.571
 1203SOL    HW2 4234   1.748   5.028   1.586
 1204SOL     OW 4235   1.630   4.814   1.068
 1204SOL    HW1 4236   1.626   4.881   1.142
 1204SOL    HW2 4237   1.557   4.832   1.002
 1205SOL     OW 4238   0.918   3.825   1.400
 1205SOL    HW1 4239   0.942   3.793   1.309
 1205SOL    HW2 4240   0.999   3.863   1.445
 1206SOL     OW 4241   0.978   4.835   1.723
 1206SOL    HW1 4242   0.880   4.850   1.739
 1206SOL    HW2 4243   0.990   4.755   1.664
 1207SOL     OW 4244   0.703   4.767   0.371
 1207SOL    HW1 4245   0.689   4.771   0.470
 1207SOL    HW2 4246   0.789   4.718   0.352
 1208SOL     OW 4247   0.419   4.533   1.250
 1208SOL    HW1 4248   0.491   4.548   1.318
 1208SOL    HW2 4249   0.378   4.443   1.265
 1209SOL     OW 4250   0.365   4.807   0.499
 1209SOL    HW1 4251   0.373   4.899   0.461
 1209SOL    HW2 4252   0.350   4.741   0.426
 1210SOL     OW 4253   0.550   4.260   0.862
 1210SOL    HW1 4254   0.565   4.322   0.785
 1210SOL    HW2 4255   0.603   4.290   0.941
 1211SOL     OW 4256   1.587   4.353   0.473
 1211SOL    HW1 4257   1.534   4.397   0.546
 1211SOL    HW2 4258   1.624   4.423   0.412
 1212SOL     OW 4259   0.414   4.464   1.602
 1212SOL    HW1 4260   0.474   4.517   1.542
 1212SOL    HW2 4261   0.454   4.374   1.618
 1213SOL     OW 4262   1.599   4.504   1.681
 1213SOL    HW1 4263   1.508   4.544   1.678
 1213SOL    HW2 4264   1.657   4.547   1.611
 1214SOL     OW 4265   0.989   3.835   1.734
 1214SOL    HW1 4266   1.045   3.917   1.724
 1214SOL    HW2 4267   1.044   3.755   1.711
 1215SOL     OW 4268   0.494   3.768   1.746
 1215SOL    HW1 4269   0.460   3.701   1.679
 1215SOL    HW2 4270   0.435   3.849   1.745
 1216SOL     OW 4271   0.584   4.593   1.033
 1216SOL    HW1 4272   0.619   4.686   1.024
 1216SOL    HW2 4273   0.522   4.588   1.112
 1217SOL     OW 4274   1.354   4.577   1.034
 1217SOL    HW1 4275   1.278   4.579   0.968
 1217SOL    HW2 4276   1.399   4.488   1.030
 1218SOL     OW 4277   1.231   4.268   0.301
 1218SOL    HW1 4278   1.231   4.179   0.347
 1218SOL    HW2 4279   1.169   4.330   0.348
 1219SOL     OW 4280   0.328   3.918   1.260
 1219SOL    HW1 4281   0.277   3.954   1.337
 1219SOL    HW2 4282   0.303   3.822   1.246
 1220SOL     OW 4283   0.731   4.362   1.052
 1220SOL    HW1 4284   0.786   4.349   0.970
 1220SOL    HW2 4285   0.684   4.450   1.047
 1221SOL     OW 4286   1.724   4.690   1.849
 1221SOL    HW1 4287   1.686   4.622   1.787
 1221SOL    HW2 4288   1.665   4.698   1.929
 1222SOL     OW 4289   0.301   3.794   0.626
 1222SOL    HW1 4290   0.284   3.889   0.649
 1222SOL    HW2 4291   0.316   3.741   0.710
 1223SOL     OW 4292   1.619   4.095   0.369
 1223SOL    HW1 4293   1.643   4.024   0.435
 1223SOL    HW2 4294   1.589   4.177   0.417
 1224SOL     OW 4295   1.022   4.479   0.966
 1224SOL    HW1 4296   1.024   4.510   1.061
 1224SOL    HW2 4297   1.013   4.379   0.964
 1225SOL     OW 4298   0.354   4.640   1.805
 1225SOL    HW1 4299   0.435   4.666   1.858
 1225SOL    HW2 4300   0.380   4.574   1.735
 1226SOL     OW 4301   1.474   4.002   0.132
 1226SOL    HW1 4302   1.432   3.918   0.167
 1226SOL    HW2 4303   1.540   4.036   0.199
 1227SOL     OW 4304   1.287   4.534   0.039
 1227SOL    HW1 4305   1.331   4.447   0.061
 1227SOL    HW2 4306   1.313   4.563  -0.053
 1228SOL     OW 4307   0.318   4.517   0.938
 1228SOL    HW1 4308   0.407   4.559   0.926
 1228SOL    HW2 4309   0.328   4.430   0.986
 1229SOL     OW 4310   1.136   4.101   1.683
 1229SOL    HW1 4311   1.082   4.165   1.739
 1229SOL    HW2 4312   1.230   4.135   1.676
 1230SOL     OW 4313   1.163   3.929   1.476
 1230SOL    HW1 4314   1.151   3.990   1.555
 1230SOL    HW2 4315   1.180   3.984   1.394
 1231SOL     OW 4316   0.982   4.526   1.231
 1231SOL    HW1 4317   1.040   4.496   1.307
 1231SOL    HW2 4318   0.892   4.482   1.238
 1232SOL     OW 4319   0.164   4.237   1.725
 1232SOL    HW1 4320   0.235   4.187   1.676
 1232SOL    HW2 4321   0.141   4.321   1.675
 1233SOL     OW 4322   1.373   4.664   1.655
 1233SOL    HW1 4323   1.393   4.762   1.656
 1233SOL    HW2 4324   1.376   4.630   1.561
 1234SOL     OW 4325   0.815   4.283   0.337
 1234SOL    HW1 4326   0.828   4.235   0.250
 1234SOL    HW2 4327   0.736   4.345   0.329
 1235SOL     OW 4328   1.650   4.326   1.188
 1235SOL    HW1 4329   1.622   4.274   1.269
 1235SOL    HW2 4330   1.747   4.309   1.170
 1236SOL     OW 4331   0.681   4.187   1.262
 1236SOL    HW1 4332   0.643   4.099   1.231
 1236SOL    HW2 4333   0.696   4.246   1.183
 1237SOL     OW 4334   0.446   4.216   0.197
 1237SOL    HW1 4335   0.525   4.278   0.198
 1237SOL    HW2 4336   0.368   4.261   0.241
 1238SOL     OW 4337   0.164   4.863   1.476
 1238SOL    HW1 4338   0.139   4.811   1.558
 1238SOL    HW2 4339   0.168   4.801   1.397
 1239SOL     OW 4340   1.330   4.762   1.230
 1239SOL    HW1 4341   1.356   4.702   1.154
 1239SOL    HW2 4342   1.261   4.827   1.198
 1240SOL     OW 4343   1.296   4.575   0.313
 1240SOL    HW1 4344   1.219   4.542   0.367
 1240SOL    HW2 4345   1.286   4.544   0.218
 1241SOL     OW 4346   1.714   3.864   0.508
 1241SOL    HW1 4347   1.794   3.852   0.449
 1241SOL    HW2 4348   1.697   3.779   0.559
 1242SOL     OW 4349   1.283   4.640   0.667
 1242SOL    HW1 4350   1.359   4.576   0.677
 1242SOL    HW2 4351   1.314   4.721   0.617
 1243SOL     OW 4352   0.265   4.043   0.718
 1243SOL    HW1 4353   0.177   4.084   0.692
 1243SOL    HW2 4354   0.276   4.050   0.817
 1244SOL     OW 4355   0.821   4.743   1.377
 1244SOL    HW1 4356   0.874   4.724   1.295
 1244SOL    HW2 4357   0.833   4.839   1.403
 1245SOL     OW 4358   0.929   4.636   0.295
 1245SOL    HW1 4359   1.001   4.677   0.240
 1245SOL    HW2 4360   0.967   4.560   0.348
 1246SOL     OW 4361   0.378   0.023   1.477
 1246SOL    HW1 4362   0.343   0.116   1.465
 1246SOL    HW2 4363   0.302  -0.042   1.477
 1247SOL     OW 4364   1.601   4.987   1.272
 1247SOL    HW1 4365   1.662   4.991   1.351
 1247SOL    HW2 4366   1.508   5.010   1.301
 1248SOL     OW 4367   1.060   4.806   0.717
 1248SOL    HW1 4368   0.978   4.759   0.749
 1248SOL    HW2 4369   1.122   4.740   0.674
 1249SOL     OW 4370   1.725   4.109   1.372
 1249SOL    HW1 4371   1.797   4.178   1.379
 1249SOL    HW2 4372   1.756   4.035   1.312
 1250SOL     OW 4373   0.110   4.718   1.707
 1250SOL    HW1 4374   0.046   4.754   1.775
 1250SOL    HW2 4375   0.199   4.703   1.750
 1251SOL     OW 4376   0.677   3.921   1.499
 1251SOL    HW1 4377   0.763   3.899   1.452
 1251SOL    HW2 4378   0.697   3.952   1.592
 1252SOL     OW 4379   1.432   4.578   1.402
 1252SOL    HW1 4380   1.381   4.639   1.341
 1252SOL    HW2 4381   1.530   4.582   1.379
 1253SOL     OW 4382   0.076   3.891   0.340
 1253SOL    HW1 4383   0.045   3.970   0.286
 1253SOL    HW2 4384   0.167   3.864   0.309
 1254SOL     OW 4385   0.620   4.557   1.429
 1254SOL    HW1 4386   0.677   4.638   1.419
 1254SOL    HW2 4387   0.678   4.476   1.440
 1255SOL     OW 4388   0.718   4.287   1.707
 1255SOL    HW1 4389   0.757   4.357   1.766
 1255SOL    HW2 4390   0.753   4.197   1.734
 1256SOL     OW 4391   1.465   4.928   1.657
 1256SOL    HW1 4392   1.490   4.915   1.753
 1256SOL    HW2 4393   1.548   4.939   1.602
 1257SOL     OW 4394   1.675   4.607   1.250
 1257SOL    HW1 4395   1.661   4.516   1.211
 1257SOL    HW2 4396   1.660   4.676   1.179
 1258SOL     OW 4397   1.218   4.040   0.461
 1258SOL    HW1 4398   1.283   3.965   0.447
 1258SOL    HW2 4399   1.246   4.095   0.539
 1259SOL     OW 4400   0.587   4.464   0.666
 1259SOL    HW1 4401   0.628   4.555   0.657
 1259SOL    HW2 4402   0.515   4.453   0.598
 1260SOL     OW 4403   1.765   4.089   1.643
 1260SOL    HW1 4404   1.741   4.098   1.547
 1260SOL    HW2 4405   1.700   4.028   1.688
 1261SOL     OW 4406   1.735   4.656   1.510
 1261SOL    HW1 4407   1.750   4.751   1.537
 1261SOL    HW2 4408   1.730   4.649   1.411
 1262SOL     OW 4409   0.862   4.681   0.858
 1262SOL    HW1 4410   0.917   4.609   0.899
 1262SOL    HW2 4411   0.818   4.735   0.930
 1263SOL     OW 4412   1.106   4.727   0.109
 1263SOL    HW1 4413   1.076   4.761   0.020
 1263SOL    HW2 4414   1.188   4.671   0.097
 1264SOL     OW 4415   0.065   4.926   0.638
 1264SOL    HW1 4416   0.062   4.928   0.738
 1264SOL    HW2 4417   0.149   4.969   0.606
 1265SOL     OW 4418   0.430   4.153   0.521
 1265SOL    HW1 4419   0.468   4.080   0.464
 1265SOL    HW2 4420   0.381   4.112   0.599
 1266SOL     OW 4421   0.333   4.271   1.284
 1266SOL    HW1 4422   0.375   4.229   1.364
 1266SOL    HW2 4423   0.357   4.219   1.202
 1267SOL     OW 4424   1.431   3.949   1.126
 1267SOL    HW1 4425   1.463   3.856   1.147
 1267SOL    HW2 4426   1.384   3.987   1.206
 1268SOL     OW 4427   1.009   3.721   1.167
 1268SOL    HW1 4428   0.947   3.673   1.105
 1268SOL    HW2 4429   1.103   3.690   1.152
 1269SOL     OW 4430   0.787   0.021   0.260
 1269SOL    HW1 4431   0.735  -0.050   0.307
 1269SOL    HW2 4432   0.857   0.057   0.322
 1270SOL     OW 4433   1.352   3.758   0.173
 1270SOL    HW1 4434   1.360   3.745   0.074
 1270SOL    HW2 4435   1.262   3.727   0.203
 1271SOL     OW 4436   1.298   4.189   0.675
 1271SOL    HW1 4437   1.240   4.269   0.687
 1271SOL    HW2 4438   1.308   4.142   0.762
 1272SOL     OW 4439   1.595   3.931   0.878
 1272SOL    HW1 4440   1.526   3.947   0.948
 1272SOL    HW2 4441   1.603   4.012   0.820
 1273SOL     OW 4442   0.039   4.772   0.277
 1273SOL    HW1 4443   0.139   4.780   0.280
 1273SOL    HW2 4444   0.008   4.729   0.362
 1274SOL     OW 4445   0.242   4.362   1.966
 1274SOL    HW1 4446   0.157   4.371   2.017
 1274SOL    HW2 4447   0.223   4.325   1.875
 1275SOL     OW 4448   5.010   4.115   2.505
 1275SOL    HW1 4449   4.928   4.154   2.547
 1275SOL    HW2 4450   4.985   4.031   2.456
 1276SOL     OW 4451   1.128   4.422   2.563
 1276SOL    HW1 4452   1.184   4.503   2.543
 1276SOL    HW2 4453   1.079   4.436   2.649
 1277SOL     OW 4454   1.767   4.328   2.089
 1277SOL    HW1 4455   1.744   4.320   1.991
 1277SOL    HW2 4456   1.731   4.248   2.137
 1278SOL     OW 4457   0.745   4.862   2.885
 1278SOL    HW1 4458   0.672   4.903   2.940
 1278SOL    HW2 4459   0.788   4.933   2.829
 1279SOL     OW 4460   0.862   4.502   3.681
 1279SOL    HW1 4461   0.852   4.570   3.753
 1279SOL    HW2 4462   0.889   4.548   3.596
 1280SOL     OW 4463   0.680   4.724   2.516
 1280SOL    HW1 4464   0.753   4.713   2.583
 1280SOL    HW2 4465   0.610   4.786   2.553
 1281SOL     OW 4466   0.706   4.888   3.664
 1281SOL    HW1 4467   0.766   4.967   3.675
 1281SOL    HW2 4468   0.617   4.918   3.630
 1282SOL     OW 4469   0.443   4.114   3.339
 1282SOL    HW1 4470   0.525   4.058   3.353
 1282SOL    HW2 4471   0.363   4.066   3.373
 1283SOL     OW 4472   1.612   4.174   2.603
 1283SOL    HW1 4473   1.528   4.189   2.552
 1283SOL    HW2 4474   1.633   4.255   2.658
 1284SOL     OW 4475   0.224   4.807   2.756
 1284SOL    HW1 4476   0.246   4.717   2.795
 1284SOL    HW2 4477   0.189   4.866   2.828
 1285SOL     OW 4478   0.590   4.704   1.991
 1285SOL    HW1 4479   0.630   4.762   1.919
 1285SOL    HW2 4480   0.629   4.731   2.080
 1286SOL     OW 4481   1.590   3.850   3.333
 1286SOL    HW1 4482   1.593   3.934   3.280
 1286SOL    HW2 4483   1.589   3.872   3.431
 1287SOL     OW 4484   0.133   4.365   2.427
 1287SOL    HW1 4485   0.081   4.281   2.444
 1287SOL    HW2 4486   0.115   4.431   2.501
 1288SOL     OW 4487   1.697   4.650   2.503
 1288SOL    HW1 4488   1.782   4.599   2.492
 1288SOL    HW2 4489   1.665   4.682   2.414
 1289SOL     OW 4490   1.647   4.830   2.287
 1289SOL    HW1 4491   1.732   4.813   2.238
 1289SOL    HW2 4492   1.666   4.882   2.371
 1290SOL     OW 4493   0.129   4.469   3.449
 1290SOL    HW1 4494   0.228   4.477   3.445
 1290SOL    HW2 4495   0.088   4.559   3.464
 1291SOL     OW 4496   1.308   4.929   3.303
 1291SOL    HW1 4497   1.347   4.861   3.242
 1291SOL    HW2 4498   1.365   4.937   3.385
 1292SOL     OW 4499   0.808   3.721   2.365
 1292SOL    HW1 4500   0.855   3.809   2.356
 1292SOL    HW2 4501   0.710   3.737   2.378
 1293SOL     OW 4502   0.195   4.698   3.127
 1293SOL    HW1 4503   0.280   4.646   3.125
 1293SOL    HW2 4504   0.127   4.655   3.067
 1294SOL     OW 4505   1.533   4.720   2.054
 1294SOL    HW1 4506   1.458   4.658   2.078
 1294SOL    HW2 4507   1.572   4.759   2.138
 1295SOL     OW 4508   0.342   3.972   3.684
 1295SOL    HW1 4509   0.389   4.061   3.688
 1295SOL    HW2 4510   0.245   3.985   3.703
 1296SOL     OW 4511   0.600   4.450   2.132
 1296SOL    HW1 4512   0.609   4.531   2.073
 1296SOL    HW2 4513   0.531   4.468   2.202
 1297SOL     OW 4514   1.279   4.070   2.797
 1297SOL    HW1 4515   1.200   4.014   2.772
 1297SOL    HW2 4516   1.335   4.021   2.864
 1298SOL     OW 4517   0.792   4.341   3.315
 1298SOL    HW1 4518   0.765   4.318   3.409
 1298SOL    HW2 4519   0.754   4.273   3.252
 1299SOL     OW 4520   1.393   4.193   3.540
 1299SOL    HW1 4521   1.384   4.242   3.626
 1299SOL    HW2 4522   1.459   4.119   3.550
 1300SOL     OW 4523   0.960   4.612   3.440
 1300SOL    HW1 4524   1.017   4.536   3.407
 1300SOL    HW2 4525   0.904   4.646   3.365
 1301SOL     OW 4526   1.040   4.430   2.291
 1301SOL    HW1 4527   1.066   4.419   2.386
 1301SOL    HW2 4528   0.961   4.373   2.271
 1302SOL     OW 4529   0.093   4.546   2.633
 1302SOL    HW1 4530   0.181   4.531   2.678
 1302SOL    HW2 4531   0.071   4.643   2.634
 1303SOL     OW 4532   1.701   4.297   3.688
 1303SOL    HW1 4533   1.669   4.380   3.643
 1303SOL    HW2 4534   1.735   4.233   3.619
 1304SOL     OW 4535   1.380   4.858   2.406
 1304SOL    HW1 4536   1.455   4.836   2.344
 1304SOL    HW2 4537   1.340   4.946   2.379
 1305SOL     OW 4538   0.538   3.910   2.756
 1305SOL    HW1 4539   0.545   3.930   2.854
 1305SOL    HW2 4540   0.557   3.994   2.705
 1306SOL     OW 4541   1.808   4.784   2.719
 1306SOL    HW1 4542   1.747   4.752   2.647
 1306SOL    HW2 4543   1.757   4.798   2.803
 1307SOL     OW 4544   0.325   4.673   2.110
 1307SOL    HW1 4545   0.407   4.709   2.067
 1307SOL    HW2 4546   0.296   4.589   2.064
 1308SOL     OW 4547   1.482   4.467   2.587
 1308SOL    HW1 4548   1.465   4.415   2.671
 1308SOL    HW2 4549   1.560   4.528   2.601
 1309SOL     OW 4550   0.195   4.015   3.410
 1309SOL    HW1 4551   0.124   4.026   3.340
 1309SOL    HW2 4552   0.192   3.922   3.446
 1310SOL     OW 4553   1.404   3.812   2.294
 1310SOL    HW1 4554   1.386   3.801   2.197
 1310SOL    HW2 4555   1.496   3.848   2.308
 1311SOL     OW 4556   0.393   4.414   2.337
 1311SOL    HW1 4557   0.419   4.318   2.346
 1311SOL    HW2 4558   0.296   4.424   2.360
 1312SOL     OW 4559   1.537   3.946   3.593
 1312SOL    HW1 4560   1.547   3.971   3.689
 1312SOL    HW2 4561   1.464   3.879   3.582
 1313SOL     OW 4562   0.634   3.849   1.967
 1313SOL    HW1 4563   0.716   3.793   1.978
 1313SOL    HW2 4564   0.578   3.813   1.892
 1314SOL     OW 4565   0.767   3.999   3.616
 1314SOL    HW1 4566   0.848   3.941   3.618
 1314SOL    HW2 4567   0.710   3.982   3.696
 1315SOL     OW 4568   1.343   4.313   3.296
 1315SOL    HW1 4569   1.371   4.276   3.385
 1315SOL    HW2 4570   1.379   4.406   3.286
 1316SOL     OW 4571   0.923   4.251   2.755
 1316SOL    HW1 4572   0.899   4.235   2.659
 1316SOL    HW2 4573   0.956   4.166   2.796
 1317SOL     OW 4574   0.545   3.787   2.365
 1317SOL    HW1 4575   0.460   3.787   2.418
 1317SOL    HW2 4576   0.548   3.869   2.307
 1318SOL     OW 4577   0.305   3.718   2.026
 1318SOL    HW1 4578   0.340   3.811   2.016
 1318SOL    HW2 4579   0.368   3.665   2.084
 1319SOL     OW 4580   0.931   3.961   2.344
 1319SOL    HW1 4581   0.897   4.007   2.262
 1319SOL    HW2 4582   1.031   3.956   2.340
 1320SOL     OW 4583   1.082   4.403   3.318
 1320SOL    HW1 4584   1.005   4.339   3.330
 1320SOL    HW2 4585   1.167   4.351   3.313
 1321SOL     OW 4586   0.452   4.854   2.609
 1321SOL    HW1 4587   0.374   4.836   2.670
 1321SOL    HW2 4588   0.427   4.831   2.515
 1322SOL     OW 4589   1.033   4.298   1.850
 1322SOL    HW1 4590   0.971   4.375   1.835
 1322SOL    HW2 4591   1.086   4.313   1.934
 1323SOL     OW 4592   0.554   3.943   3.027
 1323SOL    HW1 4593   0.603   3.863   3.063
 1323SOL    HW2 4594   0.467   3.953   3.076
 1324SOL     OW 4595   0.865   4.184   2.501
 1324SOL    HW1 4596   0.818   4.244   2.437
 1324SOL    HW2 4597   0.887   4.097   2.456
 1325SOL     OW 4598   1.032   3.761   2.601
 1325SOL    HW1 4599   0.957   3.772   2.536
 1325SOL    HW2 4600   1.005   3.697   2.673
 1326SOL     OW 4601   1.443   4.868   2.733
 1326SOL    HW1 4602   1.366   4.807   2.716
 1326SOL    HW2 4603   1.450   4.934   2.658
 1327SOL     OW 4604   1.467   4.329   2.840
 1327SOL    HW1 4605   1.413   4.244   2.838
 1327SOL    HW2 4606   1.529   4.327   2.919
 1328SOL     OW 4607   1.832   4.544   2.254
 1328SOL    HW1 4608   1.903   4.498   2.307
 1328SOL    HW2 4609   1.814   4.493   2.170
 1329SOL     OW 4610   1.397   4.297   1.937
 1329SOL    HW1 4611   1.357   4.272   2.025
 1329SOL    HW2 4612   1.495   4.276   1.939
 1330SOL     OW 4613   0.546   3.994   2.186
 1330SOL    HW1 4614   0.571   3.934   2.110
 1330SOL    HW2 4615   0.522   4.084   2.151
 1331SOL     OW 4616   1.759   4.930   3.440
 1331SOL    HW1 4617   1.857   4.908   3.434
 1331SOL    HW2 4618   1.747   5.029   3.446
 1332SOL     OW 4619   1.633   4.815   2.929
 1332SOL    HW1 4620   1.626   4.880   3.004
 1332SOL    HW2 4621   1.558   4.830   2.865
 1333SOL     OW 4622   0.918   3.815   3.271
 1333SOL    HW1 4623   0.947   3.784   3.181
 1333SOL    HW2 4624   0.986   3.877   3.309
 1334SOL     OW 4625   0.974   4.837   3.588
 1334SOL    HW1 4626   0.876   4.839   3.606
 1334SOL    HW2 4627   0.995   4.761   3.526
 1335SOL     OW 4628   0.701   4.771   2.232
 1335SOL    HW1 4629   0.688   4.770   2.331
 1335SOL    HW2 4630   0.785   4.723   2.208
 1336SOL     OW 4631   0.422   4.544   3.113
 1336SOL    HW1 4632   0.494   4.558   3.182
 1336SOL    HW2 4633   0.381   4.454   3.126
 1337SOL     OW 4634   0.362   4.803   2.361
 1337SOL    HW1 4635   0.371   4.897   2.328
 1337SOL    HW2 4636   0.355   4.741   2.283
 1338SOL     OW 4637   0.559   4.262   2.720
 1338SOL    HW1 4638   0.571   4.324   2.642
 1338SOL    HW2 4639   0.619   4.289   2.794
 1339SOL     OW 4640   1.581   4.349   2.333
 1339SOL    HW1 4641   1.535   4.400   2.405
 1339SOL    HW2 4642   1.640   4.411   2.281
 1340SOL     OW 4643   0.413   4.468   3.464
 1340SOL    HW1 4644   0.474   4.518   3.402
 1340SOL    HW2 4645   0.449   4.376   3.479
 1341SOL     OW 4646   1.599   4.505   3.544
 1341SOL    HW1 4647   1.508   4.544   3.540
 1341SOL    HW2 4648   1.657   4.546   3.473
 1342SOL     OW 4649   0.999   3.847   3.608
 1342SOL    HW1 4650   1.053   3.929   3.591
 1342SOL    HW2 4651   1.052   3.766   3.582
 1343SOL     OW 4652   0.499   3.764   3.608
 1343SOL    HW1 4653   0.457   3.707   3.538
 1343SOL    HW2 4654   0.438   3.841   3.630
 1344SOL     OW 4655   0.582   4.591   2.893
 1344SOL    HW1 4656   0.617   4.684   2.882
 1344SOL    HW2 4657   0.524   4.586   2.974
 1345SOL     OW 4658   1.352   4.580   2.893
 1345SOL    HW1 4659   1.271   4.576   2.835
 1345SOL    HW2 4660   1.399   4.491   2.890
 1346SOL     OW 4661   0.726   4.356   2.919
 1346SOL    HW1 4662   0.800   4.337   2.854
 1346SOL    HW2 4663   0.689   4.447   2.901
 1347SOL     OW 4664   1.726   4.688   3.712
 1347SOL    HW1 4665   1.685   4.622   3.648
 1347SOL    HW2 4666   1.666   4.698   3.791
 1348SOL     OW 4667   0.299   3.791   2.482
 1348SOL    HW1 4668   0.283   3.886   2.507
 1348SOL    HW2 4669   0.313   3.736   2.564
 1349SOL     OW 4670   1.615   4.097   2.233
 1349SOL    HW1 4671   1.644   4.030   2.301
 1349SOL    HW2 4672   1.591   4.182   2.279
 1350SOL     OW 4673   1.029   4.487   2.827
 1350SOL    HW1 4674   1.027   4.505   2.925
 1350SOL    HW2 4675   0.995   4.395   2.810
 1351SOL     OW 4676   0.355   4.638   3.670
 1351SOL    HW1 4677   0.437   4.661   3.722
 1351SOL    HW2 4678   0.378   4.574   3.598
 1352SOL     OW 4679   1.527   3.997   1.992
 1352SOL    HW1 4680   1.459   3.927   2.016
 1352SOL    HW2 4681   1.565   4.036   2.076
 1353SOL     OW 4682   1.299   4.550   1.892
 1353SOL    HW1 4683   1.340   4.459   1.900
 1353SOL    HW2 4684   1.326   4.592   1.805
 1354SOL     OW 4685   0.317   4.520   2.805
 1354SOL    HW1 4686   0.410   4.556   2.799
 1354SOL    HW2 4687   0.320   4.427   2.841
 1355SOL     OW 4688   0.342   4.245   2.874
 1355SOL    HW1 4689   0.287   4.164   2.855
 1355SOL    HW2 4690   0.421   4.247   2.813
 1356SOL     OW 4691   1.130   4.091   3.548
 1356SOL    HW1 4692   1.082   4.157   3.607
 1356SOL    HW2 4693   1.222   4.125   3.528
 1357SOL     OW 4694   0.982   4.523   3.094
 1357SOL    HW1 4695   1.040   4.494   3.170
 1357SOL    HW2 4696   0.892   4.479   3.101
 1358SOL     OW 4697   0.179   4.248   3.582
 1358SOL    HW1 4698   0.225   4.187   3.517
 1358SOL    HW2 4699   0.152   4.332   3.535
 1359SOL     OW 4700   1.374   4.664   3.519
 1359SOL    HW1 4701   1.393   4.762   3.521
 1359SOL    HW2 4702   1.374   4.632   3.424
 1360SOL     OW 4703   0.810   4.285   2.209
 1360SOL    HW1 4704   0.815   4.227   2.127
 1360SOL    HW2 4705   0.740   4.355   2.196
 1361SOL     OW 4706   1.637   4.329   3.050
 1361SOL    HW1 4707   1.616   4.267   3.126
 1361SOL    HW2 4708   1.732   4.316   3.022
 1362SOL     OW 4709   0.690   4.181   3.124
 1362SOL    HW1 4710   0.643   4.098   3.093
 1362SOL    HW2 4711   0.696   4.246   3.048
 1363SOL     OW 4712   0.459   4.227   2.065
 1363SOL    HW1 4713   0.529   4.296   2.085
 1363SOL    HW2 4714   0.377   4.272   2.030
 1364SOL     OW 4715   0.169   4.859   3.342
 1364SOL    HW1 4716   0.141   4.807   3.423
 1364SOL    HW2 4717   0.171   4.798   3.263
 1365SOL     OW 4718   1.341   4.766   3.088
 1365SOL    HW1 4719   1.358   4.704   3.011
 1365SOL    HW2 4720   1.261   4.823   3.068
 1366SOL     OW 4721   1.306   4.576   2.166
 1366SOL    HW1 4722   1.228   4.545   2.221
 1366SOL    HW2 4723   1.284   4.568   2.069
 1367SOL     OW 4724   1.720   3.863   2.377
 1367SOL    HW1 4725   1.788   3.832   2.309
 1367SOL    HW2 4726   1.688   3.785   2.429
 1368SOL     OW 4727   1.281   4.640   2.527
 1368SOL    HW1 4728   1.358   4.577   2.540
 1368SOL    HW2 4729   1.314   4.721   2.479
 1369SOL     OW 4730   1.840   3.900   2.797
 1369SOL    HW1 4731   1.875   3.807   2.794
 1369SOL    HW2 4732   1.743   3.901   2.772
 1370SOL     OW 4733   0.264   4.041   2.577
 1370SOL    HW1 4734   0.179   4.086   2.549
 1370SOL    HW2 4735   0.263   4.026   2.676
 1371SOL     OW 4736   0.822   4.739   3.236
 1371SOL    HW1 4737   0.873   4.717   3.153
 1371SOL    HW2 4738   0.838   4.834   3.262
 1372SOL     OW 4739   0.916   4.632   2.148
 1372SOL    HW1 4740   0.979   4.664   2.077
 1372SOL    HW2 4741   0.962   4.564   2.205
 1373SOL     OW 4742   0.380   0.022   3.345
 1373SOL    HW1 4743   0.343   0.114   3.329
 1373SOL    HW2 4744   0.305  -0.044   3.344
 1374SOL     OW 4745   1.604   4.987   3.134
 1374SOL    HW1 4746   1.665   4.990   3.213
 1374SOL    HW2 4747   1.511   5.013   3.162
 1375SOL     OW 4748   1.061   4.806   2.581
 1375SOL    HW1 4749   0.977   4.759   2.609
 1375SOL    HW2 4750   1.123   4.741   2.537
 1376SOL     OW 4751   1.724   4.103   3.230
 1376SOL    HW1 4752   1.782   4.184   3.231
 1376SOL    HW2 4753   1.758   4.038   3.162
 1377SOL     OW 4754   0.111   4.719   3.571
 1377SOL    HW1 4755   0.042   4.738   3.642
 1377SOL    HW2 4756   0.199   4.703   3.614
 1378SOL     OW 4757   0.675   3.920   3.361
 1378SOL    HW1 4758   0.761   3.896   3.316
 1378SOL    HW2 4759   0.694   3.950   3.455
 1379SOL     OW 4760   1.433   4.580   3.264
 1379SOL    HW1 4761   1.382   4.640   3.202
 1379SOL    HW2 4762   1.530   4.581   3.240
 1380SOL     OW 4763   0.621   4.558   3.294
 1380SOL    HW1 4764   0.680   4.637   3.279
 1380SOL    HW2 4765   0.677   4.476   3.304
 1381SOL     OW 4766   0.720   4.286   3.568
 1381SOL    HW1 4767   0.757   4.356   3.629
 1381SOL    HW2 4768   0.754   4.196   3.596
 1382SOL     OW 4769   1.477   4.927   3.525
 1382SOL    HW1 4770   1.495   4.915   3.623
 1382SOL    HW2 4771   1.563   4.934   3.475
 1383SOL     OW 4772   1.675   4.606   3.113
 1383SOL    HW1 4773   1.659   4.515   3.074
 1383SOL    HW2 4774   1.661   4.675   3.042
 1384SOL     OW 4775   0.589   4.461   2.526
 1384SOL    HW1 4776   0.630   4.553   2.520
 1384SOL    HW2 4777   0.515   4.453   2.459
 1385SOL     OW 4778   1.750   4.091   3.501
 1385SOL    HW1 4779   1.733   4.097   3.403
 1385SOL    HW2 4780   1.684   4.029   3.544
 1386SOL     OW 4781   1.736   4.656   3.373
 1386SOL    HW1 4782   1.750   4.751   3.399
 1386SOL    HW2 4783   1.730   4.648   3.273
 1387SOL     OW 4784   0.862   4.680   2.719
 1387SOL    HW1 4785   0.921   4.610   2.760
 1387SOL    HW2 4786   0.825   4.739   2.790
 1388SOL     OW 4787   1.077   4.695   1.942
 1388SOL    HW1 4788   1.053   4.756   1.867
 1388SOL    HW2 4789   1.160   4.644   1.919
 1389SOL     OW 4790   0.059   4.949   2.523
 1389SOL    HW1 4791   0.089   4.897   2.603
 1389SOL    HW2 4792   0.138   4.965   2.463
 1390SOL     OW 4793   0.429   4.152   2.383
 1390SOL    HW1 4794   0.472   4.080   2.329
 1390SOL    HW2 4795   0.380   4.112   2.460
 1391SOL     OW 4796   0.344   4.292   3.154
 1391SOL    HW1 4797   0.386   4.229   3.219
 1391SOL    HW2 4798   0.353   4.256   3.061
 1392SOL     OW 4799   1.430   3.949   2.985
 1392SOL    HW1 4800   1.463   3.859   3.010
 1392SOL    HW2 4801   1.383   3.991   3.063
 1393SOL     OW 4802   1.005   3.705   3.033
 1393SOL    HW1 4803   0.945   3.657   2.970
 1393SOL    HW2 4804   1.100   3.680   3.015
 1394SOL     OW 4805   0.749   0.032   2.143
 1394SOL    HW1 4806   0.706  -0.052   2.178
 1394SOL    HW2 4807   0.827   0.055   2.201
 1395SOL     OW 4808   1.348   3.781   2.025
 1395SOL    HW1 4809   1.385   3.720   1.955
 1395SOL    HW2 4810   1.259   3.746   2.055
 1396SOL     OW 4811   1.316   4.197   2.558
 1396SOL    HW1 4812   1.247   4.269   2.549
 1396SOL    HW2 4813   1.301   4.148   2.644
 1397SOL     OW 4814   1.577   3.928   2.736
 1397SOL    HW1 4815   1.517   3.948   2.814
 1397SOL    HW2 4816   1.587   4.009   2.679
 1398SOL     OW 4817   0.064   4.766   2.172
 1398SOL    HW1 4818   0.160   4.743   2.160
 1398SOL    HW2 4819   0.016   4.691   2.218
 1399SOL     OW 4820   0.228   4.338   3.844
 1399SOL    HW1 4821   0.137   4.352   3.883
 1399SOL    HW2 4822   0.221   4.322   3.746
 1400SOL     OW 4823   0.218   3.999   4.714
 1400SOL    HW1 4824   0.263   3.969   4.798
 1400SOL    HW2 4825   0.135   3.946   4.701
 1401SOL     OW 4826   5.005   4.111   4.392
 1401SOL    HW1 4827   4.921   4.147   4.434
 1401SOL    HW2 4828   4.982   4.030   4.337
 1402SOL     OW 4829   1.128   4.422   4.423
 1402SOL    HW1 4830   1.184   4.503   4.403
 1402SOL    HW2 4831   1.080   4.435   4.510
 1403SOL     OW 4832   1.767   4.330   3.949
 1403SOL    HW1 4833   1.745   4.321   3.852
 1403SOL    HW2 4834   1.732   4.250   3.999
 1404SOL     OW 4835   0.765   4.872   4.743
 1404SOL    HW1 4836   0.701   4.903   4.813
 1404SOL    HW2 4837   0.791   4.949   4.685
 1405SOL     OW 4838   0.682   4.727   4.378
 1405SOL    HW1 4839   0.752   4.713   4.448
 1405SOL    HW2 4840   0.610   4.786   4.416
 1406SOL     OW 4841   1.612   4.175   4.464
 1406SOL    HW1 4842   1.525   4.189   4.416
 1406SOL    HW2 4843   1.631   4.255   4.521
 1407SOL     OW 4844   0.222   4.807   4.619
 1407SOL    HW1 4845   0.243   4.714   4.651
 1407SOL    HW2 4846   0.189   4.862   4.696
 1408SOL     OW 4847   0.589   4.705   3.851
 1408SOL    HW1 4848   0.632   4.761   3.780
 1408SOL    HW2 4849   0.627   4.729   3.941
 1409SOL     OW 4850   0.129   4.367   4.292
 1409SOL    HW1 4851   0.083   4.282   4.318
 1409SOL    HW2 4852   0.118   4.435   4.365
 1410SOL     OW 4853   1.698   4.651   4.366
 1410SOL    HW1 4854   1.782   4.599   4.352
 1410SOL    HW2 4855   1.665   4.685   4.278
 1411SOL     OW 4856   1.646   4.829   4.149
 1411SOL    HW1 4857   1.732   4.813   4.101
 1411SOL    HW2 4858   1.664   4.884   4.231
 1412SOL     OW 4859   0.815   3.731   4.232
 1412SOL    HW1 4860   0.852   3.816   4.194
 1412SOL    HW2 4861   0.716   3.740   4.245
 1413SOL     OW 4862   0.190   4.683   4.993
 1413SOL    HW1 4863   0.280   4.644   4.977
 1413SOL    HW2 4864   0.128   4.656   4.920
 1414SOL     OW 4865   1.534   4.719   3.916
 1414SOL    HW1 4866   1.457   4.659   3.940
 1414SOL    HW2 4867   1.572   4.758   4.000
 1415SOL     OW 4868   0.597   4.448   3.992
 1415SOL    HW1 4869   0.608   4.529   3.935
 1415SOL    HW2 4870   0.528   4.465   4.062
 1416SOL     OW 4871   1.279   4.069   4.664
 1416SOL    HW1 4872   1.184   4.039   4.662
 1416SOL    HW2 4873   1.330   4.015   4.731
 1417SOL     OW 4874   1.041   4.435   4.152
 1417SOL    HW1 4875   1.067   4.421   4.248
 1417SOL    HW2 4876   0.962   4.378   4.130
 1418SOL     OW 4877   0.093   4.547   4.493
 1418SOL    HW1 4878   0.177   4.529   4.545
 1418SOL    HW2 4879   0.072   4.645   4.497
 1419SOL     OW 4880   1.378   4.858   4.266
 1419SOL    HW1 4881   1.455   4.834   4.206
 1419SOL    HW2 4882   1.343   4.948   4.241
 1420SOL     OW 4883   0.544   3.906   4.624
 1420SOL    HW1 4884   0.524   3.935   4.718
 1420SOL    HW2 4885   0.557   3.987   4.566
 1421SOL     OW 4886   1.806   4.785   4.589
 1421SOL    HW1 4887   1.746   4.756   4.514
 1421SOL    HW2 4888   1.750   4.802   4.671
 1422SOL     OW 4889   0.334   4.672   3.978
 1422SOL    HW1 4890   0.415   4.700   3.928
 1422SOL    HW2 4891   0.292   4.593   3.933
 1423SOL     OW 4892   1.481   4.468   4.450
 1423SOL    HW1 4893   1.466   4.413   4.531
 1423SOL    HW2 4894   1.561   4.527   4.464
 1424SOL     OW 4895   1.407   3.809   4.156
 1424SOL    HW1 4896   1.386   3.802   4.059
 1424SOL    HW2 4897   1.498   3.847   4.168
 1425SOL     OW 4898   0.393   4.413   4.202
 1425SOL    HW1 4899   0.419   4.317   4.212
 1425SOL    HW2 4900   0.295   4.423   4.220
 1426SOL     OW 4901   0.633   3.848   3.831
 1426SOL    HW1 4902   0.718   3.796   3.840
 1426SOL    HW2 4903   0.581   3.813   3.753
 1427SOL     OW 4904   0.926   4.233   4.630
 1427SOL    HW1 4905   0.900   4.225   4.533
 1427SOL    HW2 4906   0.959   4.145   4.663
 1428SOL     OW 4907   0.546   3.789   4.226
 1428SOL    HW1 4908   0.462   3.785   4.280
 1428SOL    HW2 4909   0.544   3.869   4.166
 1429SOL     OW 4910   0.297   3.756   3.891
 1429SOL    HW1 4911   0.340   3.843   3.867
 1429SOL    HW2 4912   0.362   3.701   3.944
 1430SOL     OW 4913   0.451   4.852   4.472
 1430SOL    HW1 4914   0.374   4.833   4.532
 1430SOL    HW2 4915   0.426   4.831   4.377
 1431SOL     OW 4916   1.032   4.285   3.724
 1431SOL    HW1 4917   0.973   4.363   3.705
 1431SOL    HW2 4918   1.083   4.301   3.808
 1432SOL     OW 4919   0.861   4.187   4.368
 1432SOL    HW1 4920   0.814   4.251   4.307
 1432SOL    HW2 4921   0.897   4.111   4.315
 1433SOL     OW 4922   1.003   3.770   4.472
 1433SOL    HW1 4923   0.946   3.754   4.391
 1433SOL    HW2 4924   0.992   3.694   4.536
 1434SOL     OW 4925   1.448   4.865   4.586
 1434SOL    HW1 4926   1.363   4.813   4.577
 1434SOL    HW2 4927   1.452   4.935   4.515
 1435SOL     OW 4928   1.466   4.331   4.705
 1435SOL    HW1 4929   1.413   4.247   4.700
 1435SOL    HW2 4930   1.531   4.325   4.781
 1436SOL     OW 4931   1.830   4.543   4.117
 1436SOL    HW1 4932   1.905   4.500   4.168
 1436SOL    HW2 4933   1.813   4.492   4.033
 1437SOL     OW 4934   1.395   4.296   3.800
 1437SOL    HW1 4935   1.351   4.271   3.886
 1437SOL    HW2 4936   1.492   4.274   3.804
 1438SOL     OW 4937   0.530   3.989   4.042
 1438SOL    HW1 4938   0.567   3.931   3.969
 1438SOL    HW2 4939   0.505   4.078   4.005
 1439SOL     OW 4940   1.634   4.829   4.801
 1439SOL    HW1 4941   1.631   4.898   4.873
 1439SOL    HW2 4942   1.555   4.840   4.741
 1440SOL     OW 4943   0.698   4.763   4.090
 1440SOL    HW1 4944   0.688   4.769   4.189
 1440SOL    HW2 4945   0.785   4.718   4.068
 1441SOL     OW 4946   0.422   4.538  -0.027
 1441SOL    HW1 4947   0.481   4.570   0.047
 1441SOL    HW2 4948   0.407   4.440  -0.017
 1442SOL     OW 4949   0.356   4.807   4.223
 1442SOL    HW1 4950   0.379   4.898   4.188
 1442SOL    HW2 4951   0.355   4.742   4.147
 1443SOL     OW 4952   0.556   4.263   4.587
 1443SOL    HW1 4953   0.569   4.322   4.508
 1443SOL    HW2 4954   0.620   4.290   4.660
 1444SOL     OW 4955   1.582   4.350   4.195
 1444SOL    HW1 4956   1.534   4.400   4.267
 1444SOL    HW2 4957   1.639   4.414   4.143
 1445SOL     OW 4958   0.587   4.590   4.755
 1445SOL    HW1 4959   0.616   4.685   4.739
 1445SOL    HW2 4960   0.523   4.587   4.832
 1446SOL     OW 4961   1.346   4.574   4.776
 1446SOL    HW1 4962   1.282   4.589   4.701
 1446SOL    HW2 4963   1.399   4.491   4.758
 1447SOL     OW 4964   0.329   3.919   4.944
 1447SOL    HW1 4965   0.298   3.965   5.028
 1447SOL    HW2 4966   0.305   3.822   4.949
 1448SOL     OW 4967   0.729   4.356   4.784
 1448SOL    HW1 4968   0.802   4.329   4.721
 1448SOL    HW2 4969   0.694   4.446   4.759
 1449SOL     OW 4970   0.298   3.791   4.346
 1449SOL    HW1 4971   0.284   3.886   4.371
 1449SOL    HW2 4972   0.312   3.736   4.428
 1450SOL     OW 4973   1.616   4.097   4.095
 1450SOL    HW1 4974   1.644   4.030   4.163
 1450SOL    HW2 4975   1.591   4.183   4.141
 1451SOL     OW 4976   1.027   4.481   4.680
 1451SOL    HW1 4977   1.015   4.512   4.774
 1451SOL    HW2 4978   0.996   4.386   4.672
 1452SOL     OW 4979   1.530   3.996   3.855
 1452SOL    HW1 4980   1.460   3.928   3.878
 1452SOL    HW2 4981   1.566   4.037   3.939
 1453SOL     OW 4982   1.295   4.550   3.754
 1453SOL    HW1 4983   1.336   4.459   3.762
 1453SOL    HW2 4984   1.324   4.592   3.668
 1454SOL     OW 4985   0.321   4.528   4.660
 1454SOL    HW1 4986   0.418   4.552   4.655
 1454SOL    HW2 4987   0.312   4.434   4.694
 1455SOL     OW 4988   0.325   4.249   4.723
 1455SOL    HW1 4989   0.290   4.156   4.718
 1455SOL    HW2 4990   0.410   4.256   4.670
 1456SOL     OW 4991   0.963   4.565   4.934
 1456SOL    HW1 4992   1.025   4.560   5.012
 1456SOL    HW2 4993   0.879   4.515   4.954
 1457SOL     OW 4994   0.067   4.313   4.832
 1457SOL    HW1 4995   0.140   4.262   4.786
 1457SOL    HW2 4996   0.038   4.264   4.914
 1458SOL     OW 4997   0.814   4.292   4.073
 1458SOL    HW1 4998   0.816   4.221   4.002
 1458SOL    HW2 4999   0.739   4.355   4.054
 1459SOL     OW 5000   1.651   4.327   4.903
 1459SOL    HW1 5001   1.643   4.253   4.970
 1459SOL    HW2 5002   1.739   4.320   4.857
 1460SOL     OW 5003   0.687   4.188   5.001
 1460SOL    HW1 5004   0.627   4.116   4.965
 1460SOL    HW2 5005   0.710   4.251   4.927
 1461SOL     OW 5006   0.466   4.220   3.918
 1461SOL    HW1 5007   0.527   4.297   3.938
 1461SOL    HW2 5008   0.374   4.254   3.899
 1462SOL     OW 5009   1.349   4.831   4.897
 1462SOL    HW1 5010   1.367   4.741   4.859
 1462SOL    HW2 5011   1.274   4.826   4.963
 1463SOL     OW 5012   1.306   4.575   4.028
 1463SOL    HW1 5013   1.228   4.545   4.083
 1463SOL    HW2 5014   1.283   4.568   3.931
 1464SOL     OW 5015   1.722   3.862   4.240
 1464SOL    HW1 5016   1.788   3.833   4.171
 1464SOL    HW2 5017   1.689   3.783   4.290
 1465SOL     OW 5018   1.281   4.641   4.391
 1465SOL    HW1 5019   1.357   4.577   4.403
 1465SOL    HW2 5020   1.313   4.722   4.341
 1466SOL     OW 5021   1.849   3.905   4.689
 1466SOL    HW1 5022   1.887   3.816   4.664
 1466SOL    HW2 5023   1.759   3.917   4.646
 1467SOL     OW 5024   0.265   4.040   4.445
 1467SOL    HW1 5025   0.180   4.085   4.418
 1467SOL    HW2 5026   0.269   4.030   4.544
 1468SOL     OW 5027   0.796   4.770   0.033
 1468SOL    HW1 5028   0.865   4.717  -0.017
 1468SOL    HW2 5029   0.835   4.802   0.120
 1469SOL     OW 5030   0.918   4.633   4.005
 1469SOL    HW1 5031   0.984   4.669   3.939
 1469SOL    HW2 5032   0.964   4.565   4.063
 1470SOL     OW 5033   1.629   0.030   0.015
 1470SOL    HW1 5034   1.639  -0.043   0.084
 1470SOL    HW2 5035   1.565   0.098   0.049
 1471SOL     OW 5036   1.059   4.806   4.441
 1471SOL    HW1 5037   0.977   4.757   4.471
 1471SOL    HW2 5038   1.122   4.741   4.398
 1472SOL     OW 5039   1.023   3.962   4.676
 1472SOL    HW1 5040   1.016   3.908   4.592
 1472SOL    HW2 5041   1.002   3.904   4.755
 1473SOL     OW 5042   1.725   4.124   0.064
 1473SOL    HW1 5043   1.809   4.141   0.116
 1473SOL    HW2 5044   1.729   4.033   0.023
 1474SOL     OW 5045   0.085   4.050   3.730
 1474SOL    HW1 5046  -0.014   4.042   3.720
 1474SOL    HW2 5047   0.117   4.134   3.686
 1475SOL     OW 5048   1.701   4.603   4.961
 1475SOL    HW1 5049   1.659   4.517   4.933
 1475SOL    HW2 5050   1.668   4.677   4.901
 1476SOL     OW 5051   0.589   4.463   4.390
 1476SOL    HW1 5052   0.630   4.553   4.381
 1476SOL    HW2 5053   0.516   4.452   4.323
 1477SOL     OW 5054   1.737   4.686   0.214
 1477SOL    HW1 5055   1.827   4.728   0.221
 1477SOL    HW2 5056   1.723   4.653   0.121
 1478SOL     OW 5057   0.860   4.679   4.580
 1478SOL    HW1 5058   0.918   4.608   4.619
 1478SOL    HW2 5059   0.832   4.743   4.652
 1479SOL     OW 5060   1.083   4.712   3.808
 1479SOL    HW1 5061   1.055   4.765   3.728
 1479SOL    HW2 5062   1.161   4.653   3.783
 1480SOL     OW 5063   0.064   4.939   4.390
 1480SOL    HW1 5064   0.097   4.890   4.471
 1480SOL    HW2 5065   0.143   4.966   4.334
 1481SOL     OW 5066   1.750   3.884   4.942
 1481SOL    HW1 5067   1.808   3.811   4.978
 1481SOL    HW2 5068   1.779   3.907   4.849
 1482SOL     OW 5069   0.435   4.153   4.251
 1482SOL    HW1 5070   0.463   4.082   4.187
 1482SOL    HW2 5071   0.382   4.111   4.325
 1483SOL     OW 5072   1.426   3.943   4.854
 1483SOL    HW1 5073   1.509   3.889   4.872
 1483SOL    HW2 5074   1.403   3.996   4.936
 1484SOL     OW 5075   0.983   3.729   4.846
 1484SOL    HW1 5076   0.948   3.651   4.794
 1484SOL    HW2 5077   1.075   3.707   4.880
 1485SOL     OW 5078   1.348   3.781   3.887
 1485SOL    HW1 5079   1.384   3.718   3.818
 1485SOL    HW2 5080   1.259   3.748   3.919
 1486SOL     OW 5081   1.322   4.198   4.426
 1486SOL    HW1 5082   1.250   4.266   4.412
 1486SOL    HW2 5083   1.301   4.143   4.506
 1487SOL     OW 5084   1.592   3.936   4.606
 1487SOL    HW1 5085   1.513   3.943   4.667
 1487SOL    HW2 5086   1.593   4.015   4.544
 1488SOL     OW 5087   0.045   4.708   3.997
 1488SOL    HW1 5088   0.141   4.735   4.000
 1488SOL    HW2 5089   0.020   4.665   4.084
 1489SOL     OW 5090   2.097   0.637   0.100
 1489SOL    HW1 5091   2.015   0.636   0.157
 1489SOL    HW2 5092   2.091   0.563   0.032
 1490SOL     OW 5093   1.865   0.379   0.640
 1490SOL    HW1 5094   1.779   0.410   0.680
 1490SOL    HW2 5095   1.848   0.298   0.584
 1491SOL     OW 5096   2.427   1.285   1.175
 1491SOL    HW1 5097   2.336   1.288   1.133
 1491SOL    HW2 5098   2.451   1.375   1.210
 1492SOL     OW 5099   3.416   1.511   0.710
 1492SOL    HW1 5100   3.375   1.491   0.798
 1492SOL    HW2 5101   3.345   1.519   0.640
 1493SOL     OW 5102   2.995   0.700   0.704
 1493SOL    HW1 5103   3.046   0.784   0.686
 1493SOL    HW2 5104   2.942   0.711   0.789
 1494SOL     OW 5105   3.649   0.610   0.233
 1494SOL    HW1 5106   3.589   0.654   0.167
 1494SOL    HW2 5107   3.595   0.547   0.289
 1495SOL     OW 5108   2.615   1.143   1.035
 1495SOL    HW1 5109   2.545   1.177   1.097
 1495SOL    HW2 5110   2.661   1.220   0.991
 1496SOL     OW 5111   2.730   0.783   1.822
 1496SOL    HW1 5112   2.690   0.855   1.878
 1496SOL    HW2 5113   2.758   0.821   1.733
 1497SOL     OW 5114   2.543   1.007   0.651
 1497SOL    HW1 5115   2.616   0.990   0.718
 1497SOL    HW2 5116   2.471   1.061   0.694
 1498SOL     OW 5117   2.570   1.155   1.813
 1498SOL    HW1 5118   2.623   1.236   1.838
 1498SOL    HW2 5119   2.482   1.184   1.775
 1499SOL     OW 5120   2.192   1.432   1.064
 1499SOL    HW1 5121   2.111   1.415   1.008
 1499SOL    HW2 5122   2.258   1.485   1.010
 1500SOL     OW 5123   3.322   1.498   1.350
 1500SOL    HW1 5124   3.372   1.585   1.355
 1500SOL    HW2 5125   3.261   1.490   1.428
 1501SOL     OW 5126   2.308   0.394   1.477
 1501SOL    HW1 5127   2.390   0.339   1.491
 1501SOL    HW2 5128   2.227   0.340   1.499
 1502SOL     OW 5129   3.477   0.452   0.736
 1502SOL    HW1 5130   3.402   0.481   0.677
 1502SOL    HW2 5131   3.491   0.521   0.807
 1503SOL     OW 5132   2.085   1.713   0.472
 1503SOL    HW1 5133   2.104   1.790   0.532
 1503SOL    HW2 5134   2.161   1.700   0.409
 1504SOL     OW 5135   3.003   1.341   1.696
 1504SOL    HW1 5136   3.033   1.346   1.791
 1504SOL    HW2 5137   2.944   1.261   1.683
 1505SOL     OW 5138   2.097   1.446   0.548
 1505SOL    HW1 5139   2.079   1.545   0.542
 1505SOL    HW2 5140   2.026   1.403   0.604
 1506SOL     OW 5141   2.471   1.796   1.428
 1506SOL    HW1 5142   2.387   1.772   1.477
 1506SOL    HW2 5143   2.501   1.888   1.456
 1507SOL     OW 5144   2.435   0.968   0.146
 1507SOL    HW1 5145   2.450   1.033   0.071
 1507SOL    HW2 5146   2.484   0.999   0.227
 1508SOL     OW 5147   3.464   0.153   1.490
 1508SOL    HW1 5148   3.459   0.228   1.425
 1508SOL    HW2 5149   3.435   0.185   1.580
 1509SOL     OW 5150   1.986   0.626   0.568
 1509SOL    HW1 5151   1.944   0.538   0.589
 1509SOL    HW2 5152   1.976   0.688   0.646
 1510SOL     OW 5153   3.701   1.758   0.356
 1510SOL    HW1 5154   3.777   1.724   0.412
 1510SOL    HW2 5155   3.725   1.849   0.320
 1511SOL     OW 5156   1.905   1.570   0.123
 1511SOL    HW1 5157   1.879   1.495   0.183
 1511SOL    HW2 5158   1.863   1.655   0.156
 1512SOL     OW 5159   3.557   0.917   0.639
 1512SOL    HW1 5160   3.643   0.874   0.611
 1512SOL    HW2 5161   3.524   0.976   0.565
 1513SOL     OW 5162   3.505   1.108   0.447
 1513SOL    HW1 5163   3.587   1.118   0.391
 1513SOL    HW2 5164   3.507   1.175   0.522
 1514SOL     OW 5165   1.984   0.743   1.584
 1514SOL    HW1 5166   2.082   0.760   1.596
 1514SOL    HW2 5167   1.934   0.829   1.592
 1515SOL     OW 5168   2.471   1.386   0.733
 1515SOL    HW1 5169   2.426   1.298   0.746
 1515SOL    HW2 5170   2.457   1.417   0.639
 1516SOL     OW 5171   3.156   1.231   1.422
 1516SOL    HW1 5172   3.200   1.166   1.360
 1516SOL    HW2 5173   3.204   1.232   1.510
 1517SOL     OW 5174   2.673   0.032   0.561
 1517SOL    HW1 5175   2.712   0.118   0.528
 1517SOL    HW2 5176   2.574   0.033   0.550
 1518SOL     OW 5177   3.374   1.035   0.198
 1518SOL    HW1 5178   3.306   0.964   0.214
 1518SOL    HW2 5179   3.447   1.027   0.266
 1519SOL     OW 5180   3.044   1.802   1.616
 1519SOL    HW1 5181   3.064   1.868   1.543
 1519SOL    HW2 5182   3.064   1.709   1.583
 1520SOL     OW 5183   2.186   0.258   1.790
 1520SOL    HW1 5184   2.253   0.321   1.829
 1520SOL    HW2 5185   2.099   0.269   1.839
 1521SOL     OW 5186   3.328   1.414   0.955
 1521SOL    HW1 5187   3.256   1.430   1.023
 1521SOL    HW2 5188   3.319   1.322   0.918
 1522SOL     OW 5189   3.512   1.740   0.589
 1522SOL    HW1 5190   3.504   1.712   0.494
 1522SOL    HW2 5191   3.488   1.662   0.649
 1523SOL     OW 5192   2.461   0.723   0.273
 1523SOL    HW1 5193   2.462   0.806   0.216
 1523SOL    HW2 5194   2.388   0.730   0.341
 1524SOL     OW 5195   3.444   1.657   0.326
 1524SOL    HW1 5196   3.536   1.694   0.319
 1524SOL    HW2 5197   3.411   1.634   0.234
 1525SOL     OW 5198   2.655   0.614   1.453
 1525SOL    HW1 5199   2.630   0.593   1.547
 1525SOL    HW2 5200   2.612   0.548   1.391
 1526SOL     OW 5201   3.257   0.474   1.676
 1526SOL    HW1 5202   3.251   0.523   1.763
 1526SOL    HW2 5203   3.322   0.399   1.685
 1527SOL     OW 5204   2.819   0.885   1.581
 1527SOL    HW1 5205   2.877   0.812   1.546
 1527SOL    HW2 5206   2.768   0.926   1.506
 1528SOL     OW 5207   2.856   0.410   1.230
 1528SOL    HW1 5208   2.776   0.434   1.286
 1528SOL    HW2 5209   2.826   0.376   1.142
 1529SOL     OW 5210   2.912   0.692   0.428
 1529SOL    HW1 5211   2.929   0.690   0.527
 1529SOL    HW2 5212   2.826   0.645   0.407
 1530SOL     OW 5213   1.962   0.801   0.771
 1530SOL    HW1 5214   2.047   0.796   0.824
 1530SOL    HW2 5215   1.901   0.868   0.813
 1531SOL     OW 5216   1.990   1.848   1.589
 1531SOL    HW1 5217   1.972   1.794   1.671
 1531SOL    HW2 5218   1.909   1.847   1.530
 1532SOL     OW 5219   2.751   0.352   0.210
 1532SOL    HW1 5220   2.791   0.419   0.146
 1532SOL    HW2 5221   2.730   0.268   0.160
 1533SOL     OW 5222   3.570   0.577   1.827
 1533SOL    HW1 5223   3.530   0.655   1.779
 1533SOL    HW2 5224   3.602   0.510   1.761
 1534SOL     OW 5225   3.239   1.142   0.538
 1534SOL    HW1 5226   3.320   1.122   0.484
 1534SOL    HW2 5227   3.182   1.208   0.490
 1535SOL     OW 5228   2.383   0.215   0.890
 1535SOL    HW1 5229   2.412   0.218   0.986
 1535SOL    HW2 5230   2.421   0.294   0.842
 1536SOL     OW 5231   2.861   1.441   0.469
 1536SOL    HW1 5232   2.826   1.521   0.421
 1536SOL    HW2 5233   2.857   1.456   0.567
 1537SOL     OW 5234   2.234   1.799   0.843
 1537SOL    HW1 5235   2.270   1.707   0.862
 1537SOL    HW2 5236   2.303   1.867   0.869
 1538SOL     OW 5237   3.666   1.061   0.867
 1538SOL    HW1 5238   3.611   1.039   0.786
 1538SOL    HW2 5239   3.606   1.067   0.946
 1539SOL     OW 5240   3.090   1.536   1.515
 1539SOL    HW1 5241   3.074   1.463   1.582
 1539SOL    HW2 5242   3.027   1.524   1.438
 1540SOL     OW 5243   3.341   0.740   0.727
 1540SOL    HW1 5244   3.329   0.693   0.814
 1540SOL    HW2 5245   3.421   0.799   0.731
 1541SOL     OW 5246   2.328   1.265   1.734
 1541SOL    HW1 5247   2.300   1.270   1.638
 1541SOL    HW2 5248   2.247   1.258   1.792
 1542SOL     OW 5249   2.985   1.772   0.260
 1542SOL    HW1 5250   2.904   1.728   0.298
 1542SOL    HW2 5251   3.006   1.732   0.171
 1543SOL     OW 5252   2.069   0.273   1.511
 1543SOL    HW1 5253   1.989   0.327   1.484
 1543SOL    HW2 5254   2.058   0.240   1.604
 1544SOL     OW 5255   3.483   1.358   0.075
 1544SOL    HW1 5256   3.435   1.446   0.073
 1544SOL    HW2 5257   3.419   1.287   0.102
 1545SOL     OW 5258   2.336   1.719   0.344
 1545SOL    HW1 5259   2.365   1.796   0.401
 1545SOL    HW2 5260   2.395   1.713   0.263
 1546SOL     OW 5261   3.270   0.116   0.396
 1546SOL    HW1 5262   3.263   0.037   0.335
 1546SOL    HW2 5263   3.362   0.120   0.434
 1547SOL     OW 5264   2.107   1.776   1.231
 1547SOL    HW1 5265   2.172   1.724   1.286
 1547SOL    HW2 5266   2.120   1.754   1.134
 1548SOL     OW 5267   2.792   1.704   0.897
 1548SOL    HW1 5268   2.869   1.654   0.937
 1548SOL    HW2 5269   2.752   1.650   0.823
 1549SOL     OW 5270   2.253   0.693   0.476
 1549SOL    HW1 5271   2.283   0.597   0.485
 1549SOL    HW2 5272   2.157   0.700   0.501
 1550SOL     OW 5273   3.393   0.234   1.735
 1550SOL    HW1 5274   3.406   0.252   1.832
 1550SOL    HW2 5275   3.321   0.165   1.723
 1551SOL     OW 5276   2.461   0.127   0.095
 1551SOL    HW1 5277   2.544   0.101   0.144
 1551SOL    HW2 5278   2.465   0.092   0.001
 1552SOL     OW 5279   2.623   0.288   1.756
 1552SOL    HW1 5280   2.705   0.230   1.748
 1552SOL    HW2 5281   2.567   0.256   1.831
 1553SOL     OW 5282   2.736   1.510   1.195
 1553SOL    HW1 5283   2.721   1.481   1.100
 1553SOL    HW2 5284   2.811   1.458   1.234
 1554SOL     OW 5285   3.207   0.590   1.436
 1554SOL    HW1 5286   3.233   0.551   1.524
 1554SOL    HW2 5287   3.242   0.683   1.429
 1555SOL     OW 5288   2.678   1.396   0.935
 1555SOL    HW1 5289   2.768   1.385   0.894
 1555SOL    HW2 5290   2.608   1.395   0.864
 1556SOL     OW 5291   2.779   0.509   0.896
 1556SOL    HW1 5292   2.758   0.503   0.799
 1556SOL    HW2 5293   2.807   0.419   0.931
 1557SOL     OW 5294   2.412   0.066   0.505
 1557SOL    HW1 5295   2.327   0.065   0.557
 1557SOL    HW2 5296   2.410   0.141   0.438
 1558SOL     OW 5297   2.800   0.247   0.457
 1558SOL    HW1 5298   2.769   0.290   0.372
 1558SOL    HW2 5299   2.899   0.259   0.466
 1559SOL     OW 5300   2.943   0.678   1.459
 1559SOL    HW1 5301   2.865   0.616   1.469
 1559SOL    HW2 5302   3.028   0.625   1.457
 1560SOL     OW 5303   3.094   1.565   0.790
 1560SOL    HW1 5304   3.104   1.641   0.726
 1560SOL    HW2 5305   3.155   1.580   0.868
 1561SOL     OW 5306   2.325   1.148   0.742
 1561SOL    HW1 5307   2.264   1.112   0.812
 1561SOL    HW2 5308   2.283   1.137   0.652
 1562SOL     OW 5309   3.130   1.796   0.609
 1562SOL    HW1 5310   3.173   1.864   0.550
 1562SOL    HW2 5311   3.049   1.836   0.652
 1563SOL     OW 5312   2.895   0.508   0.042
 1563SOL    HW1 5313   2.872   0.587  -0.014
 1563SOL    HW2 5314   2.973   0.530   0.101
 1564SOL     OW 5315   1.939   0.558   1.391
 1564SOL    HW1 5316   2.034   0.551   1.358
 1564SOL    HW2 5317   1.933   0.630   1.460
 1565SOL     OW 5318   2.423   0.221   1.169
 1565SOL    HW1 5319   2.469   0.155   1.228
 1565SOL    HW2 5320   2.332   0.240   1.204
 1566SOL     OW 5321   2.731   0.460   0.634
 1566SOL    HW1 5322   2.681   0.520   0.572
 1566SOL    HW2 5323   2.752   0.374   0.588
 1567SOL     OW 5324   2.839   0.068   0.763
 1567SOL    HW1 5325   2.771   0.063   0.690
 1567SOL    HW2 5326   2.893  -0.016   0.763
 1568SOL     OW 5327   3.311   1.159   0.847
 1568SOL    HW1 5328   3.231   1.099   0.844
 1568SOL    HW2 5329   3.340   1.181   0.754
 1569SOL     OW 5330   3.344   0.584   0.974
 1569SOL    HW1 5331   3.276   0.519   1.005
 1569SOL    HW2 5332   3.405   0.608   1.049
 1570SOL     OW 5333   3.761   0.839   0.430
 1570SOL    HW1 5334   3.791   0.748   0.459
 1570SOL    HW2 5335   3.708   0.832   0.346
 1571SOL     OW 5336   2.346   1.413   0.156
 1571SOL    HW1 5337   2.275   1.390   0.223
 1571SOL    HW2 5338   2.314   1.391   0.064
 1572SOL     OW 5339   3.532   1.271   0.655
 1572SOL    HW1 5340   3.631   1.275   0.660
 1572SOL    HW2 5341   3.494   1.362   0.673
 1573SOL     OW 5342   3.249   0.572   0.083
 1573SOL    HW1 5343   3.183   0.557   0.156
 1573SOL    HW2 5344   3.334   0.525   0.104
 1574SOL     OW 5345   2.389   0.264   0.320
 1574SOL    HW1 5346   2.414   0.204   0.244
 1574SOL    HW2 5347   2.366   0.354   0.285
 1575SOL     OW 5348   3.617   1.238   1.576
 1575SOL    HW1 5349   3.707   1.197   1.562
 1575SOL    HW2 5350   3.627   1.333   1.606
 1576SOL     OW 5351   2.930   1.361   1.339
 1576SOL    HW1 5352   2.846   1.325   1.380
 1576SOL    HW2 5353   3.008   1.311   1.376
 1577SOL     OW 5354   3.472   1.625   1.651
 1577SOL    HW1 5355   3.461   1.663   1.559
 1577SOL    HW2 5356   3.559   1.578   1.658
 1578SOL     OW 5357   3.490   1.097   1.076
 1578SOL    HW1 5358   3.488   1.163   1.152
 1578SOL    HW2 5359   3.418   1.121   1.010
 1579SOL     OW 5360   2.770   0.091   1.391
 1579SOL    HW1 5361   2.804   0.064   1.300
 1579SOL    HW2 5362   2.844   0.137   1.441
 1580SOL     OW 5363   2.835   1.127   1.701
 1580SOL    HW1 5364   2.742   1.134   1.737
 1580SOL    HW2 5365   2.849   1.037   1.661
 1581SOL     OW 5366   2.572   1.058   0.376
 1581SOL    HW1 5367   2.549   1.048   0.473
 1581SOL    HW2 5368   2.658   1.010   0.357
 1582SOL     OW 5369   2.286   0.809   1.248
 1582SOL    HW1 5370   2.355   0.824   1.319
 1582SOL    HW2 5371   2.235   0.726   1.268
 1583SOL     OW 5372   3.129   0.390   1.264
 1583SOL    HW1 5373   3.164   0.465   1.321
 1583SOL    HW2 5374   3.031   0.404   1.248
 1584SOL     OW 5375   1.933   1.577   1.353
 1584SOL    HW1 5376   1.893   1.647   1.293
 1584SOL    HW2 5377   2.033   1.580   1.346
 1585SOL     OW 5378   2.210   1.113   0.498
 1585SOL    HW1 5379   2.214   1.185   0.429
 1585SOL    HW2 5380   2.223   1.024   0.454
 1586SOL     OW 5381   2.415   0.541   0.865
 1586SOL    HW1 5382   2.427   0.599   0.784
 1586SOL    HW2 5383   2.481   0.567   0.935
 1587SOL     OW 5384   3.109   1.348   0.399
 1587SOL    HW1 5385   3.167   1.423   0.431
 1587SOL    HW2 5386   3.014   1.365   0.426
 1588SOL     OW 5387   3.139   1.449   1.148
 1588SOL    HW1 5388   3.201   1.460   1.226
 1588SOL    HW2 5389   3.059   1.397   1.177
 1589SOL     OW 5390   3.447   0.630   0.475
 1589SOL    HW1 5391   3.395   0.677   0.546
 1589SOL    HW2 5392   3.488   0.697   0.413
 1590SOL     OW 5393   2.215   1.518   1.317
 1590SOL    HW1 5394   2.195   1.479   1.227
 1590SOL    HW2 5395   2.313   1.536   1.325
 1591SOL     OW 5396   2.276   0.739   1.597
 1591SOL    HW1 5397   2.340   0.789   1.537
 1591SOL    HW2 5398   2.315   0.651   1.621
 1592SOL     OW 5399   3.462   0.781   1.683
 1592SOL    HW1 5400   3.370   0.820   1.686
 1592SOL    HW2 5401   3.514   0.825   1.610
 1593SOL     OW 5402   2.840   0.129   1.734
 1593SOL    HW1 5403   2.909   0.194   1.703
 1593SOL    HW2 5404   2.873   0.036   1.718
 1594SOL     OW 5405   2.344   0.040   1.738
 1594SOL    HW1 5406   2.323   0.013   1.644
 1594SOL    HW2 5407   2.283   0.114   1.766
 1595SOL     OW 5408   2.443   0.874   1.032
 1595SOL    HW1 5409   2.483   0.966   1.033
 1595SOL    HW2 5410   2.384   0.863   1.112
 1596SOL     OW 5411   3.068   0.527   0.276
 1596SOL    HW1 5412   3.074   0.442   0.327
 1596SOL    HW2 5413   3.019   0.596   0.330
 1597SOL     OW 5414   1.881   1.319   1.295
 1597SOL    HW1 5415   1.934   1.258   1.353
 1597SOL    HW2 5416   1.907   1.414   1.314
 1598SOL     OW 5417   2.586   0.634   1.058
 1598SOL    HW1 5418   2.661   0.611   0.996
 1598SOL    HW2 5419   2.553   0.726   1.038
 1599SOL     OW 5420   3.592   0.963   1.847
 1599SOL    HW1 5421   3.549   0.897   1.786
 1599SOL    HW2 5422   3.535   0.977   1.927
 1600SOL     OW 5423   2.164   0.069   0.630
 1600SOL    HW1 5424   2.154   0.166   0.653
 1600SOL    HW2 5425   2.215   0.023   0.703
 1601SOL     OW 5426   3.481   0.378   0.370
 1601SOL    HW1 5427   3.502   0.305   0.435
 1601SOL    HW2 5428   3.452   0.459   0.421
 1602SOL     OW 5429   2.872   0.750   0.956
 1602SOL    HW1 5430   2.881   0.768   1.054
 1602SOL    HW2 5431   2.845   0.654   0.942
 1603SOL     OW 5432   2.843   1.562   1.712
 1603SOL    HW1 5433   2.826   1.609   1.625
 1603SOL    HW2 5434   2.891   1.477   1.694
 1604SOL     OW 5435   3.720   1.510   1.606
 1604SOL    HW1 5436   3.733   1.532   1.510
 1604SOL    HW2 5437   3.805   1.525   1.656
 1605SOL     OW 5438   2.229   0.932   1.785
 1605SOL    HW1 5439   2.298   0.934   1.858
 1605SOL    HW2 5440   2.252   0.858   1.721
 1606SOL     OW 5441   3.369   0.232   0.144
 1606SOL    HW1 5442   3.304   0.216   0.218
 1606SOL    HW2 5443   3.436   0.301   0.174
 1607SOL     OW 5444   2.919   1.347   0.835
 1607SOL    HW1 5445   2.928   1.263   0.781
 1607SOL    HW2 5446   2.993   1.410   0.810
 1608SOL     OW 5447   2.193   0.778   0.927
 1608SOL    HW1 5448   2.286   0.814   0.936
 1608SOL    HW2 5449   2.183   0.696   0.985
 1609SOL     OW 5450   2.196   0.500   1.016
 1609SOL    HW1 5451   2.155   0.414   0.986
 1609SOL    HW2 5452   2.275   0.521   0.959
 1610SOL     OW 5453   3.001   0.380   1.688
 1610SOL    HW1 5454   2.947   0.435   1.752
 1610SOL    HW2 5455   3.093   0.417   1.681
 1611SOL     OW 5456   2.996   0.225   1.468
 1611SOL    HW1 5457   3.001   0.288   1.546
 1611SOL    HW2 5458   3.059   0.256   1.397
 1612SOL     OW 5459   1.855   1.321   0.243
 1612SOL    HW1 5460   1.771   1.344   0.193
 1612SOL    HW2 5461   1.863   1.222   0.250
 1613SOL     OW 5462   2.369   1.570   0.913
 1613SOL    HW1 5463   2.437   1.640   0.936
 1613SOL    HW2 5464   2.408   1.504   0.849
 1614SOL     OW 5465   2.847   0.786   1.230
 1614SOL    HW1 5466   2.899   0.758   1.310
 1614SOL    HW2 5467   2.752   0.754   1.238
 1615SOL     OW 5468   1.902   0.539   1.118
 1615SOL    HW1 5469   1.989   0.542   1.068
 1615SOL    HW2 5470   1.918   0.551   1.216
 1616SOL     OW 5471   2.050   0.523   1.726
 1616SOL    HW1 5472   2.113   0.477   1.665
 1616SOL    HW2 5473   2.005   0.599   1.678
 1617SOL     OW 5474   3.241   0.941   1.654
 1617SOL    HW1 5475   3.261   1.039   1.658
 1617SOL    HW2 5476   3.241   0.910   1.559
 1618SOL     OW 5477   2.679   0.575   0.354
 1618SOL    HW1 5478   2.689   0.493   0.297
 1618SOL    HW2 5479   2.599   0.626   0.325
 1619SOL     OW 5480   3.511   0.610   1.189
 1619SOL    HW1 5481   3.489   0.547   1.264
 1619SOL    HW2 5482   3.600   0.586   1.150
 1620SOL     OW 5483   2.093   1.565   1.749
 1620SOL    HW1 5484   2.062   1.610   1.833
 1620SOL    HW2 5485   2.108   1.467   1.766
 1621SOL     OW 5486   2.559   0.456   1.259
 1621SOL    HW1 5487   2.509   0.375   1.230
 1621SOL    HW2 5488   2.560   0.523   1.184
 1622SOL     OW 5489   2.786   1.679   1.469
 1622SOL    HW1 5490   2.764   1.639   1.380
 1622SOL    HW2 5491   2.790   1.778   1.462
 1623SOL     OW 5492   2.318   0.495   0.203
 1623SOL    HW1 5493   2.396   0.557   0.204
 1623SOL    HW2 5494   2.234   0.547   0.187
 1624SOL     OW 5495   2.015   1.130   1.460
 1624SOL    HW1 5496   2.012   1.084   1.548
 1624SOL    HW2 5497   2.028   1.063   1.387
 1625SOL     OW 5498   3.170   0.834   0.309
 1625SOL    HW1 5499   3.091   0.817   0.367
 1625SOL    HW2 5500   3.149   0.804   0.215
 1626SOL     OW 5501   3.629   1.742   1.148
 1626SOL    HW1 5502   3.691   1.776   1.078
 1626SOL    HW2 5503   3.604   1.648   1.128
 1627SOL     OW 5504   3.117   1.725   1.121
 1627SOL    HW1 5505   3.199   1.749   1.069
 1627SOL    HW2 5506   3.114   1.626   1.134
 1628SOL     OW 5507   2.541   1.666   1.725
 1628SOL    HW1 5508   2.486   1.750   1.727
 1628SOL    HW2 5509   2.609   1.673   1.652
 1629SOL     OW 5510   2.758   0.118   0.073
 1629SOL    HW1 5511   2.847   0.098   0.032
 1629SOL    HW2 5512   2.747   0.066   0.157
 1630SOL     OW 5513   3.580   0.145   0.507
 1630SOL    HW1 5514   3.657   0.143   0.443
 1630SOL    HW2 5515   3.600   0.085   0.585
 1631SOL     OW 5516   3.248   1.567   0.493
 1631SOL    HW1 5517   3.317   1.596   0.428
 1631SOL    HW2 5518   3.195   1.646   0.524
 1632SOL     OW 5519   3.142   0.924   0.664
 1632SOL    HW1 5520   3.217   0.858   0.677
 1632SOL    HW2 5521   3.175   1.002   0.612
 1633SOL     OW 5522   2.683   1.276   1.429
 1633SOL    HW1 5523   2.656   1.314   1.517
 1633SOL    HW2 5524   2.611   1.295   1.361
 1634SOL     OW 5525   2.537   1.607   0.157
 1634SOL    HW1 5526   2.534   1.632   0.061
 1634SOL    HW2 5527   2.476   1.529   0.174
 1635SOL     OW 5528   3.491   1.728   1.389
 1635SOL    HW1 5529   3.540   1.732   1.303
 1635SOL    HW2 5530   3.475   1.820   1.424
 1636SOL     OW 5531   3.704   0.166   0.961
 1636SOL    HW1 5532   3.731   0.079   0.920
 1636SOL    HW2 5533   3.611   0.189   0.932
 1637SOL     OW 5534   2.124   0.323   0.713
 1637SOL    HW1 5535   2.034   0.357   0.687
 1637SOL    HW2 5536   2.124   0.299   0.810
 1638SOL     OW 5537   3.041   1.642   0.027
 1638SOL    HW1 5538   3.036   1.559   0.082
 1638SOL    HW2 5539   3.042   1.617  -0.070
 1639SOL     OW 5540   2.687   1.009   1.374
 1639SOL    HW1 5541   2.732   0.997   1.286
 1639SOL    HW2 5542   2.690   1.105   1.401
 1640SOL     OW 5543   2.799   0.927   0.324
 1640SOL    HW1 5544   2.794   0.931   0.224
 1640SOL    HW2 5545   2.836   0.838   0.352
 1641SOL     OW 5546   3.333   1.589   0.044
 1641SOL    HW1 5547   3.242   1.631   0.043
 1641SOL    HW2 5548   3.389   1.629  -0.028
 1642SOL     OW 5549   2.225   1.303   1.493
 1642SOL    HW1 5550   2.220   1.382   1.431
 1642SOL    HW2 5551   2.150   1.241   1.474
 1643SOL     OW 5552   3.469   1.277   1.284
 1643SOL    HW1 5553   3.543   1.271   1.351
 1643SOL    HW2 5554   3.411   1.355   1.305
 1644SOL     OW 5555   2.910   1.105   0.700
 1644SOL    HW1 5556   2.837   1.055   0.746
 1644SOL    HW2 5557   2.976   1.040   0.663
 1645SOL     OW 5558   2.845   0.260   0.971
 1645SOL    HW1 5559   2.838   0.212   0.883
 1645SOL    HW2 5560   2.889   0.200   1.038
 1646SOL     OW 5561   2.460   1.486   0.480
 1646SOL    HW1 5562   2.503   1.434   0.406
 1646SOL    HW2 5563   2.399   1.556   0.441
 1647SOL     OW 5564   3.587   0.395   1.378
 1647SOL    HW1 5565   3.657   0.466   1.384
 1647SOL    HW2 5566   3.620   0.321   1.320
 1648SOL     OW 5567   2.126   1.350   0.304
 1648SOL    HW1 5568   2.032   1.356   0.269
 1648SOL    HW2 5569   2.130   1.391   0.396
 1649SOL     OW 5570   1.976   1.017   1.704
 1649SOL    HW1 5571   1.897   0.994   1.760
 1649SOL    HW2 5572   2.059   0.984   1.748
 1650SOL     OW 5573   2.535   0.215   1.494
 1650SOL    HW1 5574   2.616   0.172   1.453
 1650SOL    HW2 5575   2.553   0.236   1.590
 1651SOL     OW 5576   3.289   0.859   1.396
 1651SOL    HW1 5577   3.228   0.888   1.322
 1651SOL    HW2 5578   3.384   0.867   1.365
 1652SOL     OW 5579   3.032   1.404   0.139
 1652SOL    HW1 5580   2.952   1.348   0.116
 1652SOL    HW2 5581   3.071   1.372   0.225
 1653SOL     OW 5582   2.483   0.832   1.433
 1653SOL    HW1 5583   2.539   0.913   1.418
 1653SOL    HW2 5584   2.542   0.752   1.443
 1654SOL     OW 5585   3.350   1.776   0.975
 1654SOL    HW1 5586   3.380   1.825   0.893
 1654SOL    HW2 5587   3.428   1.760   1.035
 1655SOL     OW 5588   2.583   0.564   1.705
 1655SOL    HW1 5589   2.620   0.629   1.771
 1655SOL    HW2 5590   2.605   0.471   1.734
 1656SOL     OW 5591   3.331   1.204   1.638
 1656SOL    HW1 5592   3.316   1.236   1.732
 1656SOL    HW2 5593   3.428   1.212   1.616
 1657SOL     OW 5594   2.242   1.740   1.564
 1657SOL    HW1 5595   2.155   1.787   1.553
 1657SOL    HW2 5596   2.227   1.651   1.608
 1658SOL     OW 5597   3.530   0.882   1.256
 1658SOL    HW1 5598   3.527   0.789   1.218
 1658SOL    HW2 5599   3.524   0.948   1.181
 1659SOL     OW 5600   3.080   0.315   0.458
 1659SOL    HW1 5601   3.149   0.245   0.441
 1659SOL    HW2 5602   3.106   0.369   0.538
 1660SOL     OW 5603   2.452   0.739   0.667
 1660SOL    HW1 5604   2.495   0.828   0.653
 1660SOL    HW2 5605   2.379   0.727   0.600
 1661SOL     OW 5606   3.624   0.362   1.652
 1661SOL    HW1 5607   3.611   0.374   1.553
 1661SOL    HW2 5608   3.549   0.307   1.688
 1662SOL     OW 5609   3.606   0.934   1.511
 1662SOL    HW1 5610   3.607   1.032   1.531
 1662SOL    HW2 5611   3.590   0.920   1.414
 1663SOL     OW 5612   2.745   1.356   0.039
 1663SOL    HW1 5613   2.693   1.365   0.124
 1663SOL    HW2 5614   2.752   1.446  -0.005
 1664SOL     OW 5615   2.525   1.796   0.952
 1664SOL    HW1 5616   2.505   1.888   0.918
 1664SOL    HW2 5617   2.622   1.777   0.943
 1665SOL     OW 5618   2.726   0.965   0.853
 1665SOL    HW1 5619   2.776   0.887   0.891
 1665SOL    HW2 5620   2.691   1.021   0.928
 1666SOL     OW 5621   3.714   1.552   0.846
 1666SOL    HW1 5622   3.634   1.538   0.788
 1666SOL    HW2 5623   3.720   1.479   0.914
 1667SOL     OW 5624   2.088   1.308   1.852
 1667SOL    HW1 5625   2.017   1.243   1.825
 1667SOL    HW2 5626   2.078   1.331   1.949
 1668SOL     OW 5627   1.947   1.236   0.660
 1668SOL    HW1 5628   1.937   1.181   0.743
 1668SOL    HW2 5629   2.019   1.197   0.602
 1669SOL     OW 5630   2.542   1.403   1.627
 1669SOL    HW1 5631   2.462   1.352   1.660
 1669SOL    HW2 5632   2.539   1.496   1.665
 1670SOL     OW 5633   3.691   0.198   1.231
 1670SOL    HW1 5634   3.674   0.104   1.261
 1670SOL    HW2 5635   3.703   0.200   1.132
 1671SOL     OW 5636   2.299   0.433   0.526
 1671SOL    HW1 5637   2.329   0.361   0.463
 1671SOL    HW2 5638   2.244   0.392   0.598
 1672SOL     OW 5639   3.557   1.491   1.102
 1672SOL    HW1 5640   3.476   1.463   1.051
 1672SOL    HW2 5641   3.583   1.418   1.166
 1673SOL     OW 5642   2.187   0.550   1.289
 1673SOL    HW1 5643   2.245   0.499   1.352
 1673SOL    HW2 5644   2.210   0.525   1.195
 1674SOL     OW 5645   2.685   1.580   0.680
 1674SOL    HW1 5646   2.684   1.627   0.591
 1674SOL    HW2 5647   2.606   1.519   0.686
 1675SOL     OW 5648   2.640   1.322   0.303
 1675SOL    HW1 5649   2.603   1.232   0.326
 1675SOL    HW2 5650   2.719   1.341   0.362
 1676SOL     OW 5651   2.485   1.561   1.287
 1676SOL    HW1 5652   2.486   1.647   1.338
 1676SOL    HW2 5653   2.575   1.546   1.246
 1677SOL     OW 5654   3.152   0.462   0.683
 1677SOL    HW1 5655   3.099   0.546   0.683
 1677SOL    HW2 5656   3.155   0.424   0.776
 1678SOL     OW 5657   3.454   0.219   0.878
 1678SOL    HW1 5658   3.368   0.215   0.928
 1678SOL    HW2 5659   3.457   0.301   0.822
 1679SOL     OW 5660   2.741   1.653   0.346
 1679SOL    HW1 5661   2.668   1.630   0.282
 1679SOL    HW2 5662   2.714   1.733   0.400
 1680SOL     OW 5663   2.092   0.613   1.982
 1680SOL    HW1 5664   2.002   0.623   2.024
 1680SOL    HW2 5665   2.082   0.589   1.886
 1681SOL     OW 5666   1.868   0.387   2.499
 1681SOL    HW1 5667   1.782   0.413   2.543
 1681SOL    HW2 5668   1.854   0.304   2.445
 1682SOL     OW 5669   2.428   1.285   3.037
 1682SOL    HW1 5670   2.339   1.287   2.993
 1682SOL    HW2 5671   2.450   1.376   3.072
 1683SOL     OW 5672   3.420   1.511   2.570
 1683SOL    HW1 5673   3.375   1.492   2.658
 1683SOL    HW2 5674   3.350   1.521   2.499
 1684SOL     OW 5675   2.994   0.700   2.570
 1684SOL    HW1 5676   3.047   0.782   2.548
 1684SOL    HW2 5677   2.940   0.716   2.653
 1685SOL     OW 5678   3.620   0.609   2.091
 1685SOL    HW1 5679   3.605   0.601   1.992
 1685SOL    HW2 5680   3.593   0.524   2.136
 1686SOL     OW 5681   2.618   1.144   2.900
 1686SOL    HW1 5682   2.545   1.177   2.960
 1686SOL    HW2 5683   2.662   1.221   2.854
 1687SOL     OW 5684   2.728   0.776   3.682
 1687SOL    HW1 5685   2.692   0.843   3.747
 1687SOL    HW2 5686   2.754   0.823   3.598
 1688SOL     OW 5687   2.548   1.006   2.513
 1688SOL    HW1 5688   2.619   0.989   2.581
 1688SOL    HW2 5689   2.474   1.060   2.556
 1689SOL     OW 5690   2.571   1.156   3.672
 1689SOL    HW1 5691   2.623   1.237   3.700
 1689SOL    HW2 5692   2.482   1.184   3.637
 1690SOL     OW 5693   2.191   1.426   2.927
 1690SOL    HW1 5694   2.111   1.396   2.875
 1690SOL    HW2 5695   2.250   1.482   2.868
 1691SOL     OW 5696   3.320   1.496   3.213
 1691SOL    HW1 5697   3.371   1.582   3.213
 1691SOL    HW2 5698   3.270   1.487   3.299
 1692SOL     OW 5699   2.310   0.392   3.332
 1692SOL    HW1 5700   2.391   0.337   3.352
 1692SOL    HW2 5701   2.228   0.344   3.362
 1693SOL     OW 5702   3.480   0.452   2.597
 1693SOL    HW1 5703   3.403   0.479   2.539
 1693SOL    HW2 5704   3.493   0.520   2.669
 1694SOL     OW 5705   2.084   1.713   2.333
 1694SOL    HW1 5706   2.105   1.791   2.392
 1694SOL    HW2 5707   2.160   1.699   2.269
 1695SOL     OW 5708   2.997   1.339   3.550
 1695SOL    HW1 5709   3.046   1.339   3.638
 1695SOL    HW2 5710   2.938   1.259   3.546
 1696SOL     OW 5711   2.088   1.441   2.403
 1696SOL    HW1 5712   2.080   1.540   2.400
 1696SOL    HW2 5713   2.022   1.403   2.467
 1697SOL     OW 5714   2.117   1.096   2.745
 1697SOL    HW1 5715   2.118   1.004   2.784
 1697SOL    HW2 5716   2.058   1.155   2.800
 1698SOL     OW 5717   2.473   1.795   3.293
 1698SOL    HW1 5718   2.387   1.770   3.338
 1698SOL    HW2 5719   2.499   1.888   3.320
 1699SOL     OW 5720   2.473   0.969   1.989
 1699SOL    HW1 5721   2.504   1.033   1.918
 1699SOL    HW2 5722   2.493   1.007   2.079
 1700SOL     OW 5723   3.466   0.153   3.352
 1700SOL    HW1 5724   3.464   0.230   3.289
 1700SOL    HW2 5725   3.435   0.183   3.443
 1701SOL     OW 5726   1.980   0.652   2.426
 1701SOL    HW1 5727   1.948   0.559   2.441
 1701SOL    HW2 5728   1.971   0.704   2.511
 1702SOL     OW 5729   3.705   1.771   2.200
 1702SOL    HW1 5730   3.766   1.734   2.270
 1702SOL    HW2 5731   3.748   1.851   2.158
 1703SOL     OW 5732   1.904   1.602   1.978
 1703SOL    HW1 5733   1.880   1.506   1.992
 1703SOL    HW2 5734   1.875   1.655   2.057
 1704SOL     OW 5735   3.553   0.922   2.504
 1704SOL    HW1 5736   3.638   0.872   2.489
 1704SOL    HW2 5737   3.529   0.973   2.422
 1705SOL     OW 5738   3.503   1.111   2.295
 1705SOL    HW1 5739   3.591   1.110   2.248
 1705SOL    HW2 5740   3.508   1.174   2.373
 1706SOL     OW 5741   1.984   0.746   3.448
 1706SOL    HW1 5742   2.082   0.762   3.460
 1706SOL    HW2 5743   1.935   0.833   3.449
 1707SOL     OW 5744   2.471   1.387   2.595
 1707SOL    HW1 5745   2.426   1.299   2.608
 1707SOL    HW2 5746   2.458   1.419   2.501
 1708SOL     OW 5747   2.680   0.030   2.426
 1708SOL    HW1 5748   2.717   0.114   2.386
 1708SOL    HW2 5749   2.582   0.025   2.406
 1709SOL     OW 5750   3.410   0.986   2.060
 1709SOL    HW1 5751   3.337   0.920   2.080
 1709SOL    HW2 5752   3.437   1.033   2.144
 1710SOL     OW 5753   3.040   1.806   3.466
 1710SOL    HW1 5754   3.095   1.855   3.398
 1710SOL    HW2 5755   3.052   1.708   3.454
 1711SOL     OW 5756   2.188   0.258   3.661
 1711SOL    HW1 5757   2.252   0.325   3.698
 1711SOL    HW2 5758   2.100   0.268   3.706
 1712SOL     OW 5759   3.327   1.417   2.816
 1712SOL    HW1 5760   3.256   1.433   2.886
 1712SOL    HW2 5761   3.319   1.323   2.782
 1713SOL     OW 5762   3.516   1.735   2.441
 1713SOL    HW1 5763   3.497   1.709   2.346
 1713SOL    HW2 5764   3.493   1.659   2.501
 1714SOL     OW 5765   2.459   0.728   2.130
 1714SOL    HW1 5766   2.461   0.806   2.068
 1714SOL    HW2 5767   2.385   0.738   2.196
 1715SOL     OW 5768   3.163   0.329   2.808
 1715SOL    HW1 5769   3.079   0.283   2.781
 1715SOL    HW2 5770   3.169   0.331   2.908
 1716SOL     OW 5771   3.450   1.661   2.171
 1716SOL    HW1 5772   3.539   1.707   2.168
 1716SOL    HW2 5773   3.414   1.652   2.078
 1717SOL     OW 5774   2.660   0.608   3.317
 1717SOL    HW1 5775   2.630   0.590   3.411
 1717SOL    HW2 5776   2.612   0.546   3.254
 1718SOL     OW 5777   3.253   0.471   3.539
 1718SOL    HW1 5778   3.247   0.519   3.626
 1718SOL    HW2 5779   3.319   0.396   3.547
 1719SOL     OW 5780   2.820   0.887   3.442
 1719SOL    HW1 5781   2.877   0.814   3.407
 1719SOL    HW2 5782   2.767   0.928   3.367
 1720SOL     OW 5783   2.854   0.401   3.099
 1720SOL    HW1 5784   2.792   0.449   3.162
 1720SOL    HW2 5785   2.801   0.362   3.024
 1721SOL     OW 5786   2.920   0.697   2.291
 1721SOL    HW1 5787   2.931   0.691   2.390
 1721SOL    HW2 5788   2.831   0.660   2.265
 1722SOL     OW 5789   1.954   0.820   2.640
 1722SOL    HW1 5790   2.041   0.810   2.687
 1722SOL    HW2 5791   1.906   0.900   2.676
 1723SOL     OW 5792   1.993   1.856   3.443
 1723SOL    HW1 5793   1.990   1.825   3.538
 1723SOL    HW2 5794   1.906   1.835   3.399
 1724SOL     OW 5795   2.753   0.350   2.064
 1724SOL    HW1 5796   2.796   0.408   1.994
 1724SOL    HW2 5797   2.727   0.262   2.023
 1725SOL     OW 5798   3.569   0.576   3.688
 1725SOL    HW1 5799   3.531   0.656   3.641
 1725SOL    HW2 5800   3.601   0.510   3.620
 1726SOL     OW 5801   3.238   1.146   2.403
 1726SOL    HW1 5802   3.322   1.129   2.353
 1726SOL    HW2 5803   3.185   1.216   2.357
 1727SOL     OW 5804   2.377   0.216   2.755
 1727SOL    HW1 5805   2.410   0.218   2.849
 1727SOL    HW2 5806   2.417   0.292   2.704
 1728SOL     OW 5807   2.864   1.443   2.332
 1728SOL    HW1 5808   2.825   1.521   2.283
 1728SOL    HW2 5809   2.855   1.459   2.431
 1729SOL     OW 5810   2.218   1.809   2.719
 1729SOL    HW1 5811   2.257   1.718   2.731
 1729SOL    HW2 5812   2.288   1.878   2.738
 1730SOL     OW 5813   3.658   1.062   2.731
 1730SOL    HW1 5814   3.605   1.039   2.649
 1730SOL    HW2 5815   3.596   1.065   2.810
 1731SOL     OW 5816   3.090   1.536   3.380
 1731SOL    HW1 5817   3.073   1.465   3.448
 1731SOL    HW2 5818   3.021   1.529   3.308
 1732SOL     OW 5819   3.337   0.745   2.592
 1732SOL    HW1 5820   3.329   0.692   2.677
 1732SOL    HW2 5821   3.421   0.799   2.594
 1733SOL     OW 5822   2.327   1.265   3.595
 1733SOL    HW1 5823   2.297   1.269   3.500
 1733SOL    HW2 5824   2.248   1.258   3.656
 1734SOL     OW 5825   3.000   1.742   2.118
 1734SOL    HW1 5826   2.912   1.709   2.152
 1734SOL    HW2 5827   3.020   1.700   2.030
 1735SOL     OW 5828   2.068   0.285   3.385
 1735SOL    HW1 5829   1.983   0.332   3.359
 1735SOL    HW2 5830   2.057   0.244   3.475
 1736SOL     OW 5831   3.487   1.376   1.943
 1736SOL    HW1 5832   3.448   1.467   1.931
 1736SOL    HW2 5833   3.413   1.309   1.955
 1737SOL     OW 5834   2.335   1.717   2.204
 1737SOL    HW1 5835   2.366   1.795   2.258
 1737SOL    HW2 5836   2.393   1.706   2.124
 1738SOL     OW 5837   2.124   1.762   3.112
 1738SOL    HW1 5838   2.179   1.687   3.149
 1738SOL    HW2 5839   2.109   1.747   3.014
 1739SOL     OW 5840   2.794   1.703   2.758
 1739SOL    HW1 5841   2.870   1.652   2.797
 1739SOL    HW2 5842   2.753   1.650   2.684
 1740SOL     OW 5843   2.253   0.692   2.342
 1740SOL    HW1 5844   2.281   0.596   2.349
 1740SOL    HW2 5845   2.155   0.701   2.359
 1741SOL     OW 5846   3.393   0.231   3.597
 1741SOL    HW1 5847   3.402   0.253   3.695
 1741SOL    HW2 5848   3.323   0.160   3.585
 1742SOL     OW 5849   2.490   0.151   1.950
 1742SOL    HW1 5850   2.544   0.093   2.011
 1742SOL    HW2 5851   2.435   0.093   1.890
 1743SOL     OW 5852   2.627   0.282   3.615
 1743SOL    HW1 5853   2.711   0.227   3.617
 1743SOL    HW2 5854   2.568   0.255   3.691
 1744SOL     OW 5855   2.735   1.513   3.055
 1744SOL    HW1 5856   2.720   1.481   2.961
 1744SOL    HW2 5857   2.811   1.463   3.095
 1745SOL     OW 5858   3.207   0.585   3.297
 1745SOL    HW1 5859   3.230   0.548   3.386
 1745SOL    HW2 5860   3.242   0.679   3.290
 1746SOL     OW 5861   2.677   1.396   2.798
 1746SOL    HW1 5862   2.768   1.385   2.756
 1746SOL    HW2 5863   2.607   1.396   2.726
 1747SOL     OW 5864   2.787   0.512   2.760
 1747SOL    HW1 5865   2.759   0.505   2.664
 1747SOL    HW2 5866   2.830   0.426   2.788
 1748SOL     OW 5867   2.414   0.067   2.363
 1748SOL    HW1 5868   2.329   0.065   2.416
 1748SOL    HW2 5869   2.411   0.144   2.298
 1749SOL     OW 5870   2.803   0.250   2.320
 1749SOL    HW1 5871   2.769   0.292   2.237
 1749SOL    HW2 5872   2.901   0.267   2.329
 1750SOL     OW 5873   2.942   0.685   3.317
 1750SOL    HW1 5874   2.859   0.629   3.318
 1750SOL    HW2 5875   3.022   0.625   3.310
 1751SOL     OW 5876   3.093   1.566   2.652
 1751SOL    HW1 5877   3.105   1.640   2.586
 1751SOL    HW2 5878   3.157   1.578   2.728
 1752SOL     OW 5879   2.328   1.149   2.591
 1752SOL    HW1 5880   2.256   1.133   2.658
 1752SOL    HW2 5881   2.295   1.127   2.500
 1753SOL     OW 5882   3.130   1.795   2.470
 1753SOL    HW1 5883   3.168   1.858   2.403
 1753SOL    HW2 5884   3.054   1.839   2.518
 1754SOL     OW 5885   2.885   0.543   1.884
 1754SOL    HW1 5886   2.841   0.630   1.861
 1754SOL    HW2 5887   2.954   0.557   1.954
 1755SOL     OW 5888   1.939   0.560   3.254
 1755SOL    HW1 5889   2.033   0.551   3.221
 1755SOL    HW2 5890   1.934   0.632   3.323
 1756SOL     OW 5891   2.426   0.223   3.030
 1756SOL    HW1 5892   2.468   0.153   3.088
 1756SOL    HW2 5893   2.334   0.243   3.063
 1757SOL     OW 5894   2.730   0.461   2.499
 1757SOL    HW1 5895   2.684   0.521   2.434
 1757SOL    HW2 5896   2.751   0.374   2.455
 1758SOL     OW 5897   2.844   0.057   2.649
 1758SOL    HW1 5898   2.782   0.067   2.571
 1758SOL    HW2 5899   2.893  -0.030   2.642
 1759SOL     OW 5900   3.302   1.160   2.720
 1759SOL    HW1 5901   3.224   1.097   2.716
 1759SOL    HW2 5902   3.334   1.180   2.628
 1760SOL     OW 5903   3.342   0.591   2.830
 1760SOL    HW1 5904   3.279   0.516   2.846
 1760SOL    HW2 5905   3.398   0.606   2.912
 1761SOL     OW 5906   3.713   0.817   2.241
 1761SOL    HW1 5907   3.767   0.764   2.306
 1761SOL    HW2 5908   3.676   0.757   2.170
 1762SOL     OW 5909   2.358   1.413   2.021
 1762SOL    HW1 5910   2.274   1.401   2.074
 1762SOL    HW2 5911   2.343   1.383   1.927
 1763SOL     OW 5912   3.527   1.267   2.512
 1763SOL    HW1 5913   3.627   1.266   2.523
 1763SOL    HW2 5914   3.493   1.359   2.532
 1764SOL     OW 5915   3.250   0.561   1.931
 1764SOL    HW1 5916   3.190   0.551   2.010
 1764SOL    HW2 5917   3.345   0.556   1.961
 1765SOL     OW 5918   2.391   0.271   2.181
 1765SOL    HW1 5919   2.425   0.213   2.107
 1765SOL    HW2 5920   2.366   0.360   2.144
 1766SOL     OW 5921   3.617   1.236   3.433
 1766SOL    HW1 5922   3.707   1.193   3.430
 1766SOL    HW2 5923   3.626   1.330   3.466
 1767SOL     OW 5924   2.924   1.368   3.209
 1767SOL    HW1 5925   2.835   1.336   3.242
 1767SOL    HW2 5926   2.997   1.322   3.259
 1768SOL     OW 5927   3.472   1.627   3.512
 1768SOL    HW1 5928   3.463   1.663   3.419
 1768SOL    HW2 5929   3.559   1.578   3.520
 1769SOL     OW 5930   3.488   1.100   2.941
 1769SOL    HW1 5931   3.488   1.165   3.016
 1769SOL    HW2 5932   3.413   1.121   2.878
 1770SOL     OW 5933   2.769   0.094   3.254
 1770SOL    HW1 5934   2.812   0.080   3.165
 1770SOL    HW2 5935   2.831   0.144   3.314
 1771SOL     OW 5936   2.836   1.125   3.568
 1771SOL    HW1 5937   2.743   1.132   3.604
 1771SOL    HW2 5938   2.849   1.035   3.526
 1772SOL     OW 5939   2.580   1.054   2.237
 1772SOL    HW1 5940   2.556   1.047   2.334
 1772SOL    HW2 5941   2.659   0.996   2.218
 1773SOL     OW 5942   2.290   0.806   3.106
 1773SOL    HW1 5943   2.356   0.822   3.179
 1773SOL    HW2 5944   2.235   0.725   3.128
 1774SOL     OW 5945   3.133   0.413   3.093
 1774SOL    HW1 5946   3.171   0.470   3.166
 1774SOL    HW2 5947   3.034   0.408   3.102
 1775SOL     OW 5948   1.922   1.565   3.209
 1775SOL    HW1 5949   1.889   1.641   3.154
 1775SOL    HW2 5950   2.022   1.564   3.209
 1776SOL     OW 5951   2.413   0.541   2.725
 1776SOL    HW1 5952   2.427   0.599   2.644
 1776SOL    HW2 5953   2.477   0.568   2.797
 1777SOL     OW 5954   3.115   1.363   2.263
 1777SOL    HW1 5955   3.173   1.438   2.293
 1777SOL    HW2 5956   3.020   1.382   2.290
 1778SOL     OW 5957   3.140   1.446   3.011
 1778SOL    HW1 5958   3.199   1.459   3.090
 1778SOL    HW2 5959   3.059   1.394   3.037
 1779SOL     OW 5960   3.446   0.622   2.342
 1779SOL    HW1 5961   3.394   0.680   2.405
 1779SOL    HW2 5962   3.489   0.680   2.272
 1780SOL     OW 5963   2.218   1.510   3.180
 1780SOL    HW1 5964   2.199   1.474   3.089
 1780SOL    HW2 5965   2.316   1.530   3.188
 1781SOL     OW 5966   2.274   0.746   3.463
 1781SOL    HW1 5967   2.338   0.794   3.404
 1781SOL    HW2 5968   2.313   0.658   3.490
 1782SOL     OW 5969   3.465   0.783   3.543
 1782SOL    HW1 5970   3.373   0.823   3.542
 1782SOL    HW2 5971   3.519   0.824   3.470
 1783SOL     OW 5972   2.850   0.130   3.620
 1783SOL    HW1 5973   2.918   0.197   3.592
 1783SOL    HW2 5974   2.885   0.038   3.603
 1784SOL     OW 5975   2.346   0.041   3.614
 1784SOL    HW1 5976   2.322   0.011   3.521
 1784SOL    HW2 5977   2.286   0.116   3.641
 1785SOL     OW 5978   2.444   0.873   2.892
 1785SOL    HW1 5979   2.479   0.967   2.894
 1785SOL    HW2 5980   2.385   0.858   2.972
 1786SOL     OW 5981   3.062   0.524   2.130
 1786SOL    HW1 5982   3.073   0.444   2.189
 1786SOL    HW2 5983   3.022   0.599   2.183
 1787SOL     OW 5984   2.582   0.630   2.916
 1787SOL    HW1 5985   2.660   0.612   2.856
 1787SOL    HW2 5986   2.552   0.724   2.903
 1788SOL     OW 5987   3.594   0.962   3.712
 1788SOL    HW1 5988   3.551   0.898   3.648
 1788SOL    HW2 5989   3.533   0.978   3.790
 1789SOL     OW 5990   2.165   0.072   2.491
 1789SOL    HW1 5991   2.157   0.168   2.518
 1789SOL    HW2 5992   2.217   0.022   2.560
 1790SOL     OW 5993   3.475   0.373   2.234
 1790SOL    HW1 5994   3.503   0.301   2.297
 1790SOL    HW2 5995   3.455   0.457   2.285
 1791SOL     OW 5996   2.870   0.758   2.827
 1791SOL    HW1 5997   2.909   0.767   2.919
 1791SOL    HW2 5998   2.846   0.663   2.811
 1792SOL     OW 5999   2.846   1.563   3.574
 1792SOL    HW1 6000   2.825   1.609   3.487
 1792SOL    HW2 6001   2.889   1.475   3.556
 1793SOL     OW 6002   3.721   1.510   3.466
 1793SOL    HW1 6003   3.736   1.535   3.370
 1793SOL    HW2 6004   3.805   1.525   3.518
 1794SOL     OW 6005   2.211   0.926   3.664
 1794SOL    HW1 6006   2.282   0.933   3.734
 1794SOL    HW2 6007   2.238   0.858   3.596
 1795SOL     OW 6008   3.405   0.263   1.998
 1795SOL    HW1 6009   3.329   0.205   2.028
 1795SOL    HW2 6010   3.439   0.316   2.076
 1796SOL     OW 6011   2.920   1.346   2.699
 1796SOL    HW1 6012   2.929   1.262   2.646
 1796SOL    HW2 6013   2.993   1.410   2.673
 1797SOL     OW 6014   2.184   0.803   2.789
 1797SOL    HW1 6015   2.281   0.829   2.793
 1797SOL    HW2 6016   2.170   0.718   2.841
 1798SOL     OW 6017   2.193   0.504   2.875
 1798SOL    HW1 6018   2.153   0.417   2.845
 1798SOL    HW2 6019   2.273   0.524   2.818
 1799SOL     OW 6020   2.993   0.365   3.551
 1799SOL    HW1 6021   2.944   0.429   3.611
 1799SOL    HW2 6022   3.084   0.402   3.530
 1800SOL     OW 6023   1.862   1.322   2.058
 1800SOL    HW1 6024   1.772   1.346   2.022
 1800SOL    HW2 6025   1.869   1.222   2.065
 1801SOL     OW 6026   1.950   1.781   2.801
 1801SOL    HW1 6027   1.914   1.701   2.754
 1801SOL    HW2 6028   2.042   1.801   2.767
 1802SOL     OW 6029   2.361   1.574   2.770
 1802SOL    HW1 6030   2.430   1.642   2.796
 1802SOL    HW2 6031   2.402   1.506   2.710
 1803SOL     OW 6032   1.900   0.549   2.980
 1803SOL    HW1 6033   1.986   0.536   2.930
 1803SOL    HW2 6034   1.919   0.555   3.078
 1804SOL     OW 6035   2.048   0.524   3.589
 1804SOL    HW1 6036   2.107   0.474   3.526
 1804SOL    HW2 6037   2.005   0.600   3.541
 1805SOL     OW 6038   3.238   0.941   3.516
 1805SOL    HW1 6039   3.256   1.040   3.518
 1805SOL    HW2 6040   3.242   0.909   3.422
 1806SOL     OW 6041   2.680   0.576   2.216
 1806SOL    HW1 6042   2.691   0.494   2.160
 1806SOL    HW2 6043   2.599   0.626   2.187
 1807SOL     OW 6044   3.507   0.608   3.051
 1807SOL    HW1 6045   3.486   0.546   3.126
 1807SOL    HW2 6046   3.596   0.585   3.012
 1808SOL     OW 6047   2.106   1.550   3.590
 1808SOL    HW1 6048   2.086   1.623   3.655
 1808SOL    HW2 6049   2.108   1.462   3.637
 1809SOL     OW 6050   2.560   0.455   3.120
 1809SOL    HW1 6051   2.506   0.376   3.092
 1809SOL    HW2 6052   2.559   0.523   3.046
 1810SOL     OW 6053   2.788   1.675   3.329
 1810SOL    HW1 6054   2.761   1.640   3.240
 1810SOL    HW2 6055   2.790   1.775   3.326
 1811SOL     OW 6056   2.329   0.499   2.053
 1811SOL    HW1 6057   2.390   0.575   2.073
 1811SOL    HW2 6058   2.237   0.534   2.036
 1812SOL     OW 6059   3.180   0.801   2.168
 1812SOL    HW1 6060   3.100   0.793   2.228
 1812SOL    HW2 6061   3.150   0.799   2.072
 1813SOL     OW 6062   3.638   1.741   3.012
 1813SOL    HW1 6063   3.697   1.775   2.940
 1813SOL    HW2 6064   3.609   1.648   2.990
 1814SOL     OW 6065   3.121   1.717   2.984
 1814SOL    HW1 6066   3.202   1.743   2.932
 1814SOL    HW2 6067   3.118   1.618   2.995
 1815SOL     OW 6068   1.944   1.282   2.868
 1815SOL    HW1 6069   1.930   1.288   2.967
 1815SOL    HW2 6070   1.870   1.229   2.827
 1816SOL     OW 6071   2.541   1.667   3.587
 1816SOL    HW1 6072   2.483   1.748   3.589
 1816SOL    HW2 6073   2.607   1.675   3.512
 1817SOL     OW 6074   3.583   0.139   2.372
 1817SOL    HW1 6075   3.658   0.153   2.308
 1817SOL    HW2 6076   3.614   0.079   2.446
 1818SOL     OW 6077   3.260   1.573   2.350
 1818SOL    HW1 6078   3.322   1.602   2.277
 1818SOL    HW2 6079   3.204   1.651   2.378
 1819SOL     OW 6080   2.002   1.788   3.706
 1819SOL    HW1 6081   1.947   1.725   3.761
 1819SOL    HW2 6082   2.048   1.853   3.766
 1820SOL     OW 6083   3.140   0.925   2.527
 1820SOL    HW1 6084   3.215   0.860   2.543
 1820SOL    HW2 6085   3.175   1.004   2.476
 1821SOL     OW 6086   2.681   1.278   3.290
 1821SOL    HW1 6087   2.654   1.314   3.379
 1821SOL    HW2 6088   2.607   1.295   3.224
 1822SOL     OW 6089   2.537   1.615   2.013
 1822SOL    HW1 6090   2.548   1.629   1.914
 1822SOL    HW2 6091   2.479   1.535   2.029
 1823SOL     OW 6092   3.488   1.728   3.249
 1823SOL    HW1 6093   3.543   1.732   3.165
 1823SOL    HW2 6094   3.473   1.820   3.283
 1824SOL     OW 6095   3.704   0.155   2.818
 1824SOL    HW1 6096   3.725   0.075   2.762
 1824SOL    HW2 6097   3.611   0.186   2.798
 1825SOL     OW 6098   2.122   0.324   2.579
 1825SOL    HW1 6099   2.033   0.360   2.551
 1825SOL    HW2 6100   2.118   0.295   2.674
 1826SOL     OW 6101   3.072   1.618   1.885
 1826SOL    HW1 6102   3.058   1.526   1.922
 1826SOL    HW2 6103   3.005   1.634   1.812
 1827SOL     OW 6104   2.688   1.011   3.235
 1827SOL    HW1 6105   2.714   1.007   3.138
 1827SOL    HW2 6106   2.690   1.106   3.266
 1828SOL     OW 6107   3.355   1.618   1.900
 1828SOL    HW1 6108   3.255   1.618   1.893
 1828SOL    HW2 6109   3.395   1.627   1.809
 1829SOL     OW 6110   2.219   1.295   3.354
 1829SOL    HW1 6111   2.217   1.378   3.299
 1829SOL    HW2 6112   2.147   1.233   3.324
 1830SOL     OW 6113   3.476   1.282   3.146
 1830SOL    HW1 6114   3.539   1.268   3.222
 1830SOL    HW2 6115   3.413   1.356   3.168
 1831SOL     OW 6116   2.915   1.103   2.569
 1831SOL    HW1 6117   2.840   1.054   2.614
 1831SOL    HW2 6118   2.982   1.037   2.535
 1832SOL     OW 6119   2.460   1.487   2.343
 1832SOL    HW1 6120   2.507   1.435   2.272
 1832SOL    HW2 6121   2.400   1.555   2.300
 1833SOL     OW 6122   3.587   0.391   3.238
 1833SOL    HW1 6123   3.655   0.465   3.244
 1833SOL    HW2 6124   3.622   0.319   3.179
 1834SOL     OW 6125   2.111   1.394   2.138
 1834SOL    HW1 6126   2.014   1.379   2.119
 1834SOL    HW2 6127   2.124   1.411   2.236
 1835SOL     OW 6128   1.966   1.046   3.599
 1835SOL    HW1 6129   1.888   1.002   3.644
 1835SOL    HW2 6130   2.050   0.997   3.623
 1836SOL     OW 6131   2.532   0.213   3.358
 1836SOL    HW1 6132   2.610   0.169   3.315
 1836SOL    HW2 6133   2.553   0.234   3.453
 1837SOL     OW 6134   1.942   0.335   1.888
 1837SOL    HW1 6135   1.845   0.320   1.871
 1837SOL    HW2 6136   1.973   0.414   1.837
 1838SOL     OW 6137   3.297   0.847   3.265
 1838SOL    HW1 6138   3.233   0.894   3.204
 1838SOL    HW2 6139   3.390   0.857   3.229
 1839SOL     OW 6140   3.027   1.373   1.977
 1839SOL    HW1 6141   2.935   1.333   1.974
 1839SOL    HW2 6142   3.067   1.356   2.068
 1840SOL     OW 6143   2.484   0.831   3.295
 1840SOL    HW1 6144   2.540   0.912   3.281
 1840SOL    HW2 6145   2.543   0.751   3.304
 1841SOL     OW 6146   3.350   1.776   2.837
 1841SOL    HW1 6147   3.380   1.826   2.755
 1841SOL    HW2 6148   3.428   1.761   2.897
 1842SOL     OW 6149   2.581   0.563   3.568
 1842SOL    HW1 6150   2.619   0.631   3.630
 1842SOL    HW2 6151   2.608   0.472   3.598
 1843SOL     OW 6152   3.330   1.203   3.494
 1843SOL    HW1 6153   3.314   1.217   3.592
 1843SOL    HW2 6154   3.427   1.216   3.474
 1844SOL     OW 6155   2.244   1.737   3.427
 1844SOL    HW1 6156   2.159   1.785   3.407
 1844SOL    HW2 6157   2.223   1.649   3.470
 1845SOL     OW 6158   3.528   0.882   3.119
 1845SOL    HW1 6159   3.528   0.789   3.081
 1845SOL    HW2 6160   3.525   0.948   3.045
 1846SOL     OW 6161   3.085   0.330   2.331
 1846SOL    HW1 6162   3.158   0.263   2.315
 1846SOL    HW2 6163   3.107   0.384   2.412
 1847SOL     OW 6164   2.452   0.739   2.529
 1847SOL    HW1 6165   2.494   0.829   2.515
 1847SOL    HW2 6166   2.379   0.726   2.462
 1848SOL     OW 6167   3.621   0.365   3.511
 1848SOL    HW1 6168   3.609   0.375   3.412
 1848SOL    HW2 6169   3.548   0.308   3.548
 1849SOL     OW 6170   3.612   0.935   3.372
 1849SOL    HW1 6171   3.603   1.032   3.394
 1849SOL    HW2 6172   3.591   0.919   3.276
 1850SOL     OW 6173   2.727   1.369   1.897
 1850SOL    HW1 6174   2.681   1.394   1.983
 1850SOL    HW2 6175   2.746   1.451   1.844
 1851SOL     OW 6176   2.523   1.794   2.812
 1851SOL    HW1 6177   2.503   1.887   2.781
 1851SOL    HW2 6178   2.621   1.777   2.805
 1852SOL     OW 6179   2.728   0.968   2.717
 1852SOL    HW1 6180   2.776   0.889   2.757
 1852SOL    HW2 6181   2.690   1.024   2.791
 1853SOL     OW 6182   3.715   1.558   2.709
 1853SOL    HW1 6183   3.637   1.544   2.648
 1853SOL    HW2 6184   3.716   1.486   2.779
 1854SOL     OW 6185   2.087   1.306   3.718
 1854SOL    HW1 6186   2.029   1.229   3.691
 1854SOL    HW2 6187   2.081   1.319   3.817
 1855SOL     OW 6188   1.938   1.235   2.525
 1855SOL    HW1 6189   1.936   1.180   2.609
 1855SOL    HW2 6190   2.014   1.207   2.468
 1856SOL     OW 6191   2.540   1.404   3.488
 1856SOL    HW1 6192   2.461   1.352   3.522
 1856SOL    HW2 6193   2.538   1.496   3.527
 1857SOL     OW 6194   3.696   0.194   3.092
 1857SOL    HW1 6195   3.666   0.104   3.125
 1857SOL    HW2 6196   3.699   0.193   2.992
 1858SOL     OW 6197   2.297   0.432   2.388
 1858SOL    HW1 6198   2.328   0.361   2.325
 1858SOL    HW2 6199   2.244   0.390   2.462
 1859SOL     OW 6200   3.558   1.490   2.963
 1859SOL    HW1 6201   3.476   1.465   2.911
 1859SOL    HW2 6202   3.577   1.420   3.031
 1860SOL     OW 6203   2.186   0.550   3.150
 1860SOL    HW1 6204   2.244   0.498   3.212
 1860SOL    HW2 6205   2.209   0.526   3.056
 1861SOL     OW 6206   2.686   1.580   2.541
 1861SOL    HW1 6207   2.683   1.626   2.452
 1861SOL    HW2 6208   2.606   1.519   2.549
 1862SOL     OW 6209   2.635   1.334   2.176
 1862SOL    HW1 6210   2.601   1.240   2.180
 1862SOL    HW2 6211   2.720   1.341   2.228
 1863SOL     OW 6212   2.485   1.561   3.149
 1863SOL    HW1 6213   2.484   1.647   3.200
 1863SOL    HW2 6214   2.575   1.547   3.107
 1864SOL     OW 6215   3.157   0.462   2.554
 1864SOL    HW1 6216   3.104   0.547   2.560
 1864SOL    HW2 6217   3.167   0.423   2.646
 1865SOL     OW 6218   3.454   0.227   2.749
 1865SOL    HW1 6219   3.358   0.218   2.776
 1865SOL    HW2 6220   3.464   0.304   2.686
 1866SOL     OW 6221   2.741   1.653   2.206
 1866SOL    HW1 6222   2.670   1.630   2.140
 1866SOL    HW2 6223   2.714   1.732   2.260
 1867SOL     OW 6224   2.093   0.611   3.846
 1867SOL    HW1 6225   2.004   0.628   3.889
 1867SOL    HW2 6226   2.079   0.589   3.749
 1868SOL     OW 6227   2.084   0.277   4.724
 1868SOL    HW1 6228   2.119   0.237   4.809
 1868SOL    HW2 6229   1.992   0.242   4.706
 1869SOL     OW 6230   1.867   0.386   4.363
 1869SOL    HW1 6231   1.780   0.413   4.403
 1869SOL    HW2 6232   1.855   0.304   4.308
 1870SOL     OW 6233   2.413   1.258   4.893
 1870SOL    HW1 6234   2.331   1.291   4.848
 1870SOL    HW2 6235   2.470   1.335   4.920
 1871SOL     OW 6236   3.424   1.512   4.432
 1871SOL    HW1 6237   3.382   1.493   4.520
 1871SOL    HW2 6238   3.353   1.523   4.362
 1872SOL     OW 6239   2.991   0.704   4.422
 1872SOL    HW1 6240   3.047   0.786   4.405
 1872SOL    HW2 6241   2.945   0.714   4.510
 1873SOL     OW 6242   3.621   0.610   3.952
 1873SOL    HW1 6243   3.604   0.600   3.854
 1873SOL    HW2 6244   3.596   0.525   3.999
 1874SOL     OW 6245   2.625   1.144   4.767
 1874SOL    HW1 6246   2.543   1.168   4.820
 1874SOL    HW2 6247   2.658   1.224   4.718
 1875SOL     OW 6248   2.548   1.007   4.377
 1875SOL    HW1 6249   2.619   0.988   4.445
 1875SOL    HW2 6250   2.475   1.060   4.418
 1876SOL     OW 6251   2.211   1.409   4.787
 1876SOL    HW1 6252   2.120   1.389   4.751
 1876SOL    HW2 6253   2.254   1.480   4.731
 1877SOL     OW 6254   3.474   0.452   4.462
 1877SOL    HW1 6255   3.389   0.468   4.413
 1877SOL    HW2 6256   3.493   0.528   4.524
 1878SOL     OW 6257   2.089   1.709   4.193
 1878SOL    HW1 6258   2.102   1.788   4.253
 1878SOL    HW2 6259   2.166   1.703   4.129
 1879SOL     OW 6260   2.086   1.440   4.260
 1879SOL    HW1 6261   2.080   1.539   4.254
 1879SOL    HW2 6262   2.021   1.406   4.328
 1880SOL     OW 6263   2.122   1.085   4.611
 1880SOL    HW1 6264   2.120   0.994   4.652
 1880SOL    HW2 6265   2.062   1.146   4.663
 1881SOL     OW 6266   2.464   0.971   3.849
 1881SOL    HW1 6267   2.502   1.032   3.779
 1881SOL    HW2 6268   2.490   1.006   3.940
 1882SOL     OW 6269   1.986   0.649   4.291
 1882SOL    HW1 6270   1.946   0.559   4.304
 1882SOL    HW2 6271   1.969   0.705   4.373
 1883SOL     OW 6272   3.705   1.770   4.062
 1883SOL    HW1 6273   3.763   1.732   4.134
 1883SOL    HW2 6274   3.751   1.849   4.021
 1884SOL     OW 6275   1.882   1.603   3.859
 1884SOL    HW1 6276   1.876   1.503   3.853
 1884SOL    HW2 6277   1.875   1.631   3.954
 1885SOL     OW 6278   3.556   0.924   4.366
 1885SOL    HW1 6279   3.637   0.870   4.346
 1885SOL    HW2 6280   3.528   0.974   4.285
 1886SOL     OW 6281   3.503   1.098   4.158
 1886SOL    HW1 6282   3.590   1.104   4.110
 1886SOL    HW2 6283   3.499   1.168   4.230
 1887SOL     OW 6284   2.470   1.387   4.455
 1887SOL    HW1 6285   2.423   1.299   4.468
 1887SOL    HW2 6286   2.456   1.418   4.361
 1888SOL     OW 6287   2.678   0.027   4.283
 1888SOL    HW1 6288   2.710   0.115   4.247
 1888SOL    HW2 6289   2.579   0.021   4.272
 1889SOL     OW 6290   3.399   0.997   3.911
 1889SOL    HW1 6291   3.328   0.926   3.905
 1889SOL    HW2 6292   3.419   1.016   4.007
 1890SOL     OW 6293   3.338   1.416   4.676
 1890SOL    HW1 6294   3.267   1.437   4.743
 1890SOL    HW2 6295   3.326   1.322   4.643
 1891SOL     OW 6296   3.518   1.735   4.302
 1891SOL    HW1 6297   3.495   1.710   4.208
 1891SOL    HW2 6298   3.495   1.660   4.363
 1892SOL     OW 6299   2.458   0.724   3.992
 1892SOL    HW1 6300   2.466   0.804   3.932
 1892SOL    HW2 6301   2.384   0.739   4.057
 1893SOL     OW 6302   3.143   0.350   4.658
 1893SOL    HW1 6303   3.047   0.320   4.660
 1893SOL    HW2 6304   3.196   0.294   4.721
 1894SOL     OW 6305   3.446   1.670   4.031
 1894SOL    HW1 6306   3.538   1.708   4.028
 1894SOL    HW2 6307   3.415   1.650   3.938
 1895SOL     OW 6308   2.902   0.690   4.153
 1895SOL    HW1 6309   2.923   0.689   4.251
 1895SOL    HW2 6310   2.817   0.640   4.137
 1896SOL     OW 6311   1.949   0.826   4.502
 1896SOL    HW1 6312   2.036   0.810   4.548
 1896SOL    HW2 6313   1.903   0.905   4.542
 1897SOL     OW 6314   2.758   0.348   3.925
 1897SOL    HW1 6315   2.797   0.407   3.856
 1897SOL    HW2 6316   2.728   0.262   3.883
 1898SOL     OW 6317   2.409   0.202   4.620
 1898SOL    HW1 6318   2.403   0.227   4.716
 1898SOL    HW2 6319   2.420   0.285   4.564
 1899SOL     OW 6320   2.858   1.442   4.201
 1899SOL    HW1 6321   2.819   1.518   4.149
 1899SOL    HW2 6322   2.849   1.461   4.299
 1900SOL     OW 6323   2.219   1.806   4.591
 1900SOL    HW1 6324   2.260   1.715   4.601
 1900SOL    HW2 6325   2.289   1.876   4.600
 1901SOL     OW 6326   3.659   1.061   4.589
 1901SOL    HW1 6327   3.608   1.033   4.508
 1901SOL    HW2 6328   3.598   1.063   4.668
 1902SOL     OW 6329   3.340   0.746   4.451
 1902SOL    HW1 6330   3.325   0.691   4.533
 1902SOL    HW2 6331   3.423   0.801   4.463
 1903SOL     OW 6332   2.983   1.722   3.979
 1903SOL    HW1 6333   2.892   1.686   4.001
 1903SOL    HW2 6334   3.012   1.687   3.890
 1904SOL     OW 6335   3.490   1.382   3.810
 1904SOL    HW1 6336   3.449   1.472   3.795
 1904SOL    HW2 6337   3.421   1.311   3.792
 1905SOL     OW 6338   2.335   1.718   4.063
 1905SOL    HW1 6339   2.365   1.796   4.118
 1905SOL    HW2 6340   2.395   1.708   3.984
 1906SOL     OW 6341   2.805   1.687   4.622
 1906SOL    HW1 6342   2.890   1.635   4.631
 1906SOL    HW2 6343   2.748   1.647   4.550
 1907SOL     OW 6344   2.252   0.692   4.204
 1907SOL    HW1 6345   2.281   0.596   4.211
 1907SOL    HW2 6346   2.154   0.699   4.222
 1908SOL     OW 6347   2.494   0.153   3.814
 1908SOL    HW1 6348   2.546   0.095   3.876
 1908SOL    HW2 6349   2.437   0.097   3.755
 1909SOL     OW 6350   2.668   1.386   4.651
 1909SOL    HW1 6351   2.760   1.385   4.611
 1909SOL    HW2 6352   2.600   1.389   4.578
 1910SOL     OW 6353   2.789   0.511   4.623
 1910SOL    HW1 6354   2.765   0.499   4.527
 1910SOL    HW2 6355   2.823   0.424   4.660
 1911SOL     OW 6356   2.412   0.067   4.236
 1911SOL    HW1 6357   2.326   0.065   4.287
 1911SOL    HW2 6358   2.409   0.140   4.169
 1912SOL     OW 6359   3.291   1.202   3.764
 1912SOL    HW1 6360   3.324   1.122   3.813
 1912SOL    HW2 6361   3.200   1.227   3.798
 1913SOL     OW 6362   2.788   0.250   4.184
 1913SOL    HW1 6363   2.762   0.294   4.098
 1913SOL    HW2 6364   2.888   0.246   4.190
 1914SOL     OW 6365   3.084   1.576   4.526
 1914SOL    HW1 6366   3.104   1.639   4.451
 1914SOL    HW2 6367   3.159   1.578   4.593
 1915SOL     OW 6368   2.328   1.149   4.454
 1915SOL    HW1 6369   2.257   1.129   4.522
 1915SOL    HW2 6370   2.295   1.124   4.363
 1916SOL     OW 6371   3.128   1.794   4.332
 1916SOL    HW1 6372   3.168   1.854   4.263
 1916SOL    HW2 6373   3.059   1.845   4.384
 1917SOL     OW 6374   2.886   0.545   3.745
 1917SOL    HW1 6375   2.839   0.629   3.720
 1917SOL    HW2 6376   2.955   0.565   3.815
 1918SOL     OW 6377   2.731   0.462   4.362
 1918SOL    HW1 6378   2.678   0.522   4.301
 1918SOL    HW2 6379   2.746   0.374   4.316
 1919SOL     OW 6380   2.840   0.054   4.499
 1919SOL    HW1 6381   2.774   0.059   4.423
 1919SOL    HW2 6382   2.890  -0.032   4.494
 1920SOL     OW 6383   3.301   1.164   4.585
 1920SOL    HW1 6384   3.237   1.088   4.586
 1920SOL    HW2 6385   3.342   1.172   4.494
 1921SOL     OW 6386   3.333   0.600   4.702
 1921SOL    HW1 6387   3.274   0.519   4.703
 1921SOL    HW2 6388   3.394   0.598   4.782
 1922SOL     OW 6389   3.701   0.820   4.114
 1922SOL    HW1 6390   3.765   0.767   4.170
 1922SOL    HW2 6391   3.675   0.767   4.033
 1923SOL     OW 6392   2.356   1.415   3.883
 1923SOL    HW1 6393   2.273   1.398   3.935
 1923SOL    HW2 6394   2.343   1.384   3.788
 1924SOL     OW 6395   3.524   1.265   4.374
 1924SOL    HW1 6396   3.623   1.262   4.382
 1924SOL    HW2 6397   3.491   1.358   4.392
 1925SOL     OW 6398   3.252   0.567   3.793
 1925SOL    HW1 6399   3.191   0.554   3.871
 1925SOL    HW2 6400   3.346   0.545   3.820
 1926SOL     OW 6401   2.396   0.271   4.046
 1926SOL    HW1 6402   2.429   0.213   3.972
 1926SOL    HW2 6403   2.370   0.360   4.010
 1927SOL     OW 6404   2.971   1.255   4.818
 1927SOL    HW1 6405   2.891   1.234   4.875
 1927SOL    HW2 6406   2.942   1.267   4.723
 1928SOL     OW 6407   3.493   1.101   4.801
 1928SOL    HW1 6408   3.491   1.169   4.874
 1928SOL    HW2 6409   3.406   1.103   4.752
 1929SOL     OW 6410   2.572   1.062   4.100
 1929SOL    HW1 6411   2.559   1.047   4.198
 1929SOL    HW2 6412   2.637   0.995   4.065
 1930SOL     OW 6413   2.299   0.802  -0.025
 1930SOL    HW1 6414   2.344   0.856   0.046
 1930SOL    HW2 6415   2.230   0.743   0.017
 1931SOL     OW 6416   2.412   0.540   4.590
 1931SOL    HW1 6417   2.427   0.596   4.509
 1931SOL    HW2 6418   2.477   0.566   4.662
 1932SOL     OW 6419   3.100   1.399   4.088
 1932SOL    HW1 6420   3.167   1.454   4.138
 1932SOL    HW2 6421   3.012   1.403   4.136
 1933SOL     OW 6422   3.148   1.446   4.857
 1933SOL    HW1 6423   3.177   1.446   4.953
 1933SOL    HW2 6424   3.085   1.370   4.842
 1934SOL     OW 6425   3.439   0.627   4.197
 1934SOL    HW1 6426   3.401   0.681   4.272
 1934SOL    HW2 6427   3.501   0.684   4.142
 1935SOL     OW 6428   2.445   0.871   4.753
 1935SOL    HW1 6429   2.469   0.968   4.755
 1935SOL    HW2 6430   2.389   0.849   4.833
 1936SOL     OW 6431   3.230   0.864   4.739
 1936SOL    HW1 6432   3.135   0.859   4.710
 1936SOL    HW2 6433   3.266   0.772   4.752
 1937SOL     OW 6434   3.071   0.535   3.996
 1937SOL    HW1 6435   3.093   0.458   4.056
 1937SOL    HW2 6436   3.021   0.604   4.048
 1938SOL     OW 6437   1.934   1.342  -0.032
 1938SOL    HW1 6438   1.962   1.285   0.045
 1938SOL    HW2 6439   1.928   1.437  -0.003
 1939SOL     OW 6440   2.586   0.632   4.778
 1939SOL    HW1 6441   2.664   0.609   4.720
 1939SOL    HW2 6442   2.554   0.724   4.756
 1940SOL     OW 6443   2.170   0.063   4.389
 1940SOL    HW1 6444   2.157   0.162   4.398
 1940SOL    HW2 6445   2.211   0.027   4.472
 1941SOL     OW 6446   3.475   0.375   4.093
 1941SOL    HW1 6447   3.508   0.304   4.154
 1941SOL    HW2 6448   3.452   0.457   4.145
 1942SOL     OW 6449   2.884   0.755   4.680
 1942SOL    HW1 6450   2.880   0.769   4.779
 1942SOL    HW2 6451   2.856   0.662   4.659
 1943SOL     OW 6452   3.396   0.266   3.860
 1943SOL    HW1 6453   3.331   0.198   3.895
 1943SOL    HW2 6454   3.436   0.316   3.937
 1944SOL     OW 6455   3.196   0.834   3.767
 1944SOL    HW1 6456   3.210   0.736   3.763
 1944SOL    HW2 6457   3.194   0.871   3.674
 1945SOL     OW 6458   2.919   1.341   4.560
 1945SOL    HW1 6459   2.925   1.260   4.501
 1945SOL    HW2 6460   2.990   1.407   4.534
 1946SOL     OW 6461   2.175   0.810   4.668
 1946SOL    HW1 6462   2.271   0.835   4.665
 1946SOL    HW2 6463   2.165   0.717   4.704
 1947SOL     OW 6464   2.177   0.529   4.725
 1947SOL    HW1 6465   2.146   0.434   4.721
 1947SOL    HW2 6466   2.263   0.539   4.675
 1948SOL     OW 6467   1.856   1.317   3.923
 1948SOL    HW1 6468   1.767   1.342   3.886
 1948SOL    HW2 6469   1.869   1.218   3.916
 1949SOL     OW 6470   1.951   1.794   4.654
 1949SOL    HW1 6471   1.916   1.709   4.616
 1949SOL    HW2 6472   2.049   1.801   4.636
 1950SOL     OW 6473   2.365   1.577   4.631
 1950SOL    HW1 6474   2.436   1.644   4.653
 1950SOL    HW2 6475   2.403   1.507   4.571
 1951SOL     OW 6476   2.830   0.758   4.946
 1951SOL    HW1 6477   2.879   0.797   5.023
 1951SOL    HW2 6478   2.731   0.760   4.964
 1952SOL     OW 6479   1.913   0.538   4.844
 1952SOL    HW1 6480   1.991   0.531   4.783
 1952SOL    HW2 6481   1.934   0.603   4.918
 1953SOL     OW 6482   2.673   0.570   4.080
 1953SOL    HW1 6483   2.683   0.490   4.020
 1953SOL    HW2 6484   2.596   0.625   4.049
 1954SOL     OW 6485   3.514   0.597   4.906
 1954SOL    HW1 6486   3.503   0.522   4.971
 1954SOL    HW2 6487   3.603   0.590   4.861
 1955SOL     OW 6488   2.560   0.472   4.997
 1955SOL    HW1 6489   2.495   0.397   4.984
 1955SOL    HW2 6490   2.563   0.528   4.915
 1956SOL     OW 6491   2.329   0.497   3.915
 1956SOL    HW1 6492   2.390   0.574   3.936
 1956SOL    HW2 6493   2.237   0.531   3.898
 1957SOL     OW 6494   3.605   1.749   4.837
 1957SOL    HW1 6495   3.688   1.780   4.790
 1957SOL    HW2 6496   3.600   1.650   4.834
 1958SOL     OW 6497   1.947   1.265   4.716
 1958SOL    HW1 6498   1.937   1.291   4.812
 1958SOL    HW2 6499   1.870   1.206   4.690
 1959SOL     OW 6500   3.602   0.153   4.229
 1959SOL    HW1 6501   3.645   0.119   4.146
 1959SOL    HW2 6502   3.615   0.087   4.303
 1960SOL     OW 6503   3.263   1.575   4.218
 1960SOL    HW1 6504   3.321   1.601   4.141
 1960SOL    HW2 6505   3.204   1.652   4.243
 1961SOL     OW 6506   3.149   0.928   4.396
 1961SOL    HW1 6507   3.217   0.858   4.417
 1961SOL    HW2 6508   3.182   0.986   4.322
 1962SOL     OW 6509   2.536   1.616   3.874
 1962SOL    HW1 6510   2.547   1.630   3.776
 1962SOL    HW2 6511   2.478   1.535   3.890
 1963SOL     OW 6512   3.555   1.790   0.097
 1963SOL    HW1 6513   3.576   1.773   0.001
 1963SOL    HW2 6514   3.504   1.875   0.106
 1964SOL     OW 6515   3.699   0.197   4.678
 1964SOL    HW1 6516   3.733   0.103   4.670
 1964SOL    HW2 6517   3.607   0.202   4.639
 1965SOL     OW 6518   2.124   0.322   4.446
 1965SOL    HW1 6519   2.037   0.361   4.416
 1965SOL    HW2 6520   2.123   0.312   4.545
 1966SOL     OW 6521   3.068   1.602   3.746
 1966SOL    HW1 6522   3.067   1.509   3.782
 1966SOL    HW2 6523   2.995   1.614   3.679
 1967SOL     OW 6524   2.712   1.026   0.070
 1967SOL    HW1 6525   2.719   1.036  -0.030
 1967SOL    HW2 6526   2.701   1.116   0.111
 1968SOL     OW 6527   2.745   0.887   3.989
 1968SOL    HW1 6528   2.818   0.934   3.940
 1968SOL    HW2 6529   2.785   0.814   4.045
 1969SOL     OW 6530   3.359   1.623   3.765
 1969SOL    HW1 6531   3.259   1.627   3.761
 1969SOL    HW2 6532   3.397   1.631   3.673
 1970SOL     OW 6533   2.915   1.101   4.431
 1970SOL    HW1 6534   2.839   1.055   4.476
 1970SOL    HW2 6535   2.981   1.033   4.398
 1971SOL     OW 6536   2.889   0.248   4.681
 1971SOL    HW1 6537   2.870   0.187   4.603
 1971SOL    HW2 6538   2.865   0.201   4.766
 1972SOL     OW 6539   2.460   1.488   4.204
 1972SOL    HW1 6540   2.506   1.434   4.133
 1972SOL    HW2 6541   2.399   1.554   4.162
 1973SOL     OW 6542   3.589   0.396   0.076
 1973SOL    HW1 6543   3.660   0.448   0.123
 1973SOL    HW2 6544   3.631   0.321   0.025
 1974SOL     OW 6545   2.106   1.385   3.996
 1974SOL    HW1 6546   2.009   1.370   3.980
 1974SOL    HW2 6547   2.122   1.406   4.092
 1975SOL     OW 6548   1.942   0.330   3.749
 1975SOL    HW1 6549   1.844   0.319   3.735
 1975SOL    HW2 6550   1.973   0.412   3.701
 1976SOL     OW 6551   3.044   1.340   3.833
 1976SOL    HW1 6552   2.947   1.315   3.831
 1976SOL    HW2 6553   3.072   1.357   3.928
 1977SOL     OW 6554   3.364   1.774   4.694
 1977SOL    HW1 6555   3.378   1.838   4.618
 1977SOL    HW2 6556   3.449   1.764   4.745
 1978SOL     OW 6557   3.553   0.876   4.959
 1978SOL    HW1 6558   3.515   0.787   4.931
 1978SOL    HW2 6559   3.521   0.947   4.897
 1979SOL     OW 6560   2.451   0.739   4.391
 1979SOL    HW1 6561   2.494   0.828   4.376
 1979SOL    HW2 6562   2.378   0.726   4.324
 1980SOL     OW 6563   3.622   0.915   0.213
 1980SOL    HW1 6564   3.685   0.993   0.213
 1980SOL    HW2 6565   3.582   0.904   0.122
 1981SOL     OW 6566   2.726   1.369   3.759
 1981SOL    HW1 6567   2.682   1.391   3.846
 1981SOL    HW2 6568   2.744   1.454   3.709
 1982SOL     OW 6569   2.527   1.796   4.677
 1982SOL    HW1 6570   2.499   1.887   4.648
 1982SOL    HW2 6571   2.625   1.784   4.661
 1983SOL     OW 6572   2.730   0.968   4.581
 1983SOL    HW1 6573   2.779   0.889   4.617
 1983SOL    HW2 6574   2.692   1.021   4.656
 1984SOL     OW 6575   3.717   1.558   4.571
 1984SOL    HW1 6576   3.638   1.549   4.510
 1984SOL    HW2 6577   3.712   1.488   4.642
 1985SOL     OW 6578   1.936   1.236   4.392
 1985SOL    HW1 6579   1.939   1.188   4.480
 1985SOL    HW2 6580   2.015   1.210   4.337
 1986SOL     OW 6581   3.709   0.196   4.952
 1986SOL    HW1 6582   3.681   0.106   4.987
 1986SOL    HW2 6583   3.697   0.198   4.853
 1987SOL     OW 6584   2.297   0.431   4.252
 1987SOL    HW1 6585   2.330   0.360   4.190
 1987SOL    HW2 6586   2.244   0.389   4.325
 1988SOL     OW 6587   3.562   1.486   4.826
 1988SOL    HW1 6588   3.482   1.457   4.772
 1988SOL    HW2 6589   3.570   1.428   4.907
 1989SOL     OW 6590   2.681   1.584   4.404
 1989SOL    HW1 6591   2.682   1.626   4.314
 1989SOL    HW2 6592   2.604   1.521   4.411
 1990SOL     OW 6593   3.299   0.219   4.836
 1990SOL    HW1 6594   3.354   0.141   4.866
 1990SOL    HW2 6595   3.271   0.273   4.916
 1991SOL     OW 6596   2.635   1.332   4.036
 1991SOL    HW1 6597   2.600   1.239   4.044
 1991SOL    HW2 6598   2.719   1.340   4.090
 1992SOL     OW 6599   3.176   0.471   4.416
 1992SOL    HW1 6600   3.107   0.544   4.410
 1992SOL    HW2 6601   3.162   0.420   4.501
 1993SOL     OW 6602   3.445   0.210   4.592
 1993SOL    HW1 6603   3.378   0.221   4.666
 1993SOL    HW2 6604   3.448   0.294   4.538
 1994SOL     OW 6605   2.732   1.647   4.072
 1994SOL    HW1 6606   2.661   1.628   4.004
 1994SOL    HW2 6607   2.710   1.730   4.122
 1995SOL     OW 6608   2.094   2.502   0.105
 1995SOL    HW1 6609   2.009   2.499   0.158
 1995SOL    HW2 6610   2.091   2.432   0.034
 1996SOL     OW 6611   1.863   2.240   0.640
 1996SOL    HW1 6612   1.778   2.271   0.681
 1996SOL    HW2 6613   1.848   2.154   0.592
 1997SOL     OW 6614   2.439   3.146   1.181
 1997SOL    HW1 6615   2.350   3.135   1.138
 1997SOL    HW2 6616   2.450   3.242   1.209
 1998SOL     OW 6617   3.409   3.370   0.706
 1998SOL    HW1 6618   3.355   3.358   0.789
 1998SOL    HW2 6619   3.348   3.380   0.628
 1999SOL     OW 6620   2.996   2.561   0.706
 1999SOL    HW1 6621   3.047   2.644   0.683
 1999SOL    HW2 6622   2.943   2.576   0.790
 2000SOL     OW 6623   3.654   2.471   0.237
 2000SOL    HW1 6624   3.595   2.512   0.168
 2000SOL    HW2 6625   3.600   2.410   0.295
 2001SOL     OW 6626   2.617   3.003   1.033
 2001SOL    HW1 6627   2.552   3.039   1.100
 2001SOL    HW2 6628   2.662   3.079   0.987
 2002SOL     OW 6629   2.726   2.640   1.819
 2002SOL    HW1 6630   2.699   2.710   1.886
 2002SOL    HW2 6631   2.754   2.684   1.734
 2003SOL     OW 6632   2.544   2.867   0.652
 2003SOL    HW1 6633   2.618   2.853   0.718
 2003SOL    HW2 6634   2.471   2.920   0.694
 2004SOL     OW 6635   2.567   3.017   1.810
 2004SOL    HW1 6636   2.621   3.098   1.836
 2004SOL    HW2 6637   2.479   3.046   1.773
 2005SOL     OW 6638   3.328   3.363   1.345
 2005SOL    HW1 6639   3.376   3.449   1.359
 2005SOL    HW2 6640   3.256   3.353   1.414
 2006SOL     OW 6641   2.307   2.257   1.477
 2006SOL    HW1 6642   2.387   2.199   1.493
 2006SOL    HW2 6643   2.224   2.206   1.498
 2007SOL     OW 6644   3.474   2.314   0.742
 2007SOL    HW1 6645   3.402   2.342   0.678
 2007SOL    HW2 6646   3.500   2.391   0.800
 2008SOL     OW 6647   2.084   3.569   0.477
 2008SOL    HW1 6648   2.103   3.650   0.532
 2008SOL    HW2 6649   2.154   3.561   0.405
 2009SOL     OW 6650   2.996   3.203   1.694
 2009SOL    HW1 6651   3.058   3.187   1.771
 2009SOL    HW2 6652   2.936   3.124   1.682
 2010SOL     OW 6653   2.097   3.292   0.524
 2010SOL    HW1 6654   2.085   3.391   0.520
 2010SOL    HW2 6655   2.028   3.252   0.585
 2011SOL     OW 6656   2.471   3.655   1.429
 2011SOL    HW1 6657   2.385   3.634   1.477
 2011SOL    HW2 6658   2.502   3.746   1.455
 2012SOL     OW 6659   2.435   2.838   0.145
 2012SOL    HW1 6660   2.467   2.890   0.066
 2012SOL    HW2 6661   2.483   2.868   0.227
 2013SOL     OW 6662   3.459   1.981   1.475
 2013SOL    HW1 6663   3.454   2.054   1.407
 2013SOL    HW2 6664   3.451   2.019   1.567
 2014SOL     OW 6665   1.989   2.490   0.575
 2014SOL    HW1 6666   1.943   2.403   0.596
 2014SOL    HW2 6667   1.973   2.554   0.650
 2015SOL     OW 6668   3.704   3.620   0.341
 2015SOL    HW1 6669   3.768   3.581   0.408
 2015SOL    HW2 6670   3.731   3.714   0.322
 2016SOL     OW 6671   1.910   3.443   0.126
 2016SOL    HW1 6672   1.893   3.355   0.168
 2016SOL    HW2 6673   1.873   3.516   0.184
 2017SOL     OW 6674   3.557   2.778   0.637
 2017SOL    HW1 6675   3.642   2.737   0.606
 2017SOL    HW2 6676   3.520   2.838   0.566
 2018SOL     OW 6677   3.499   2.973   0.446
 2018SOL    HW1 6678   3.588   2.973   0.401
 2018SOL    HW2 6679   3.500   3.037   0.522
 2019SOL     OW 6680   1.981   2.601   1.584
 2019SOL    HW1 6681   2.079   2.615   1.600
 2019SOL    HW2 6682   1.933   2.689   1.594
 2020SOL     OW 6683   2.469   3.246   0.736
 2020SOL    HW1 6684   2.423   3.158   0.747
 2020SOL    HW2 6685   2.457   3.279   0.643
 2021SOL     OW 6686   3.148   3.089   1.426
 2021SOL    HW1 6687   3.194   3.037   1.355
 2021SOL    HW2 6688   3.205   3.091   1.508
 2022SOL     OW 6689   2.673   1.865   0.502
 2022SOL    HW1 6690   2.719   1.953   0.486
 2022SOL    HW2 6691   2.575   1.881   0.515
 2023SOL     OW 6692   2.055   2.820   1.279
 2023SOL    HW1 6693   2.142   2.774   1.260
 2023SOL    HW2 6694   1.981   2.775   1.228
 2024SOL     OW 6695   3.354   2.897   0.188
 2024SOL    HW1 6696   3.282   2.829   0.204
 2024SOL    HW2 6697   3.423   2.890   0.260
 2025SOL     OW 6698   3.046   3.665   1.620
 2025SOL    HW1 6699   3.059   3.733   1.548
 2025SOL    HW2 6700   3.063   3.574   1.582
 2026SOL     OW 6701   2.200   2.124   1.785
 2026SOL    HW1 6702   2.262   2.197   1.813
 2026SOL    HW2 6703   2.106   2.149   1.809
 2027SOL     OW 6704   3.518   3.598   0.589
 2027SOL    HW1 6705   3.496   3.571   0.495
 2027SOL    HW2 6706   3.494   3.524   0.651
 2028SOL     OW 6707   2.458   2.584   0.270
 2028SOL    HW1 6708   2.472   2.670   0.221
 2028SOL    HW2 6709   2.389   2.596   0.341
 2029SOL     OW 6710   3.453   3.514   0.332
 2029SOL    HW1 6711   3.546   3.551   0.331
 2029SOL    HW2 6712   3.419   3.504   0.239
 2030SOL     OW 6713   2.652   2.476   1.452
 2030SOL    HW1 6714   2.629   2.456   1.548
 2030SOL    HW2 6715   2.606   2.412   1.392
 2031SOL     OW 6716   3.254   2.332   1.679
 2031SOL    HW1 6717   3.253   2.380   1.767
 2031SOL    HW2 6718   3.321   2.257   1.684
 2032SOL     OW 6719   2.819   2.747   1.581
 2032SOL    HW1 6720   2.876   2.673   1.546
 2032SOL    HW2 6721   2.768   2.788   1.506
 2033SOL     OW 6722   2.838   2.276   1.254
 2033SOL    HW1 6723   2.754   2.309   1.298
 2033SOL    HW2 6724   2.813   2.222   1.174
 2034SOL     OW 6725   2.911   2.556   0.429
 2034SOL    HW1 6726   2.928   2.552   0.527
 2034SOL    HW2 6727   2.826   2.507   0.408
 2035SOL     OW 6728   1.952   2.677   0.780
 2035SOL    HW1 6729   2.039   2.678   0.828
 2035SOL    HW2 6730   1.896   2.755   0.808
 2036SOL     OW 6731   1.993   3.716   1.582
 2036SOL    HW1 6732   1.986   3.688   1.678
 2036SOL    HW2 6733   1.905   3.701   1.537
 2037SOL     OW 6734   2.754   2.207   0.206
 2037SOL    HW1 6735   2.787   2.277   0.143
 2037SOL    HW2 6736   2.750   2.119   0.159
 2038SOL     OW 6737   3.555   2.440   1.827
 2038SOL    HW1 6738   3.526   2.520   1.775
 2038SOL    HW2 6739   3.597   2.373   1.766
 2039SOL     OW 6740   3.236   3.001   0.540
 2039SOL    HW1 6741   3.318   2.982   0.486
 2039SOL    HW2 6742   3.181   3.070   0.494
 2040SOL     OW 6743   2.407   2.050   0.895
 2040SOL    HW1 6744   2.414   2.072   0.993
 2040SOL    HW2 6745   2.415   2.134   0.841
 2041SOL     OW 6746   2.861   3.305   0.463
 2041SOL    HW1 6747   2.821   3.386   0.421
 2041SOL    HW2 6748   2.864   3.317   0.563
 2042SOL     OW 6749   2.218   3.671   0.859
 2042SOL    HW1 6750   2.256   3.579   0.873
 2042SOL    HW2 6751   2.290   3.739   0.875
 2043SOL     OW 6752   3.664   2.926   0.866
 2043SOL    HW1 6753   3.608   2.904   0.786
 2043SOL    HW2 6754   3.606   2.929   0.947
 2044SOL     OW 6755   3.091   3.400   1.512
 2044SOL    HW1 6756   3.080   3.329   1.581
 2044SOL    HW2 6757   3.028   3.383   1.436
 2045SOL     OW 6758   2.190   2.807   0.260
 2045SOL    HW1 6759   2.274   2.826   0.210
 2045SOL    HW2 6760   2.145   2.726   0.223
 2046SOL     OW 6761   3.344   2.600   0.726
 2046SOL    HW1 6762   3.331   2.559   0.817
 2046SOL    HW2 6763   3.420   2.665   0.729
 2047SOL     OW 6764   2.322   3.124   1.740
 2047SOL    HW1 6765   2.286   3.135   1.647
 2047SOL    HW2 6766   2.251   3.085   1.798
 2048SOL     OW 6767   2.961   3.649   0.234
 2048SOL    HW1 6768   2.901   3.602   0.299
 2048SOL    HW2 6769   2.984   3.587   0.159
 2049SOL     OW 6770   2.060   2.159   1.516
 2049SOL    HW1 6771   1.969   2.197   1.498
 2049SOL    HW2 6772   2.050   2.076   1.572
 2050SOL     OW 6773   3.481   3.212   0.085
 2050SOL    HW1 6774   3.437   3.300   0.071
 2050SOL    HW2 6775   3.413   3.145   0.114
 2051SOL     OW 6776   2.334   3.592   0.327
 2051SOL    HW1 6777   2.366   3.659   0.394
 2051SOL    HW2 6778   2.408   3.571   0.263
 2052SOL     OW 6779   3.260   1.971   0.419
 2052SOL    HW1 6780   3.238   1.902   0.351
 2052SOL    HW2 6781   3.359   1.971   0.436
 2053SOL     OW 6782   2.111   3.646   1.240
 2053SOL    HW1 6783   2.180   3.581   1.272
 2053SOL    HW2 6784   2.096   3.632   1.142
 2054SOL     OW 6785   2.797   3.562   0.904
 2054SOL    HW1 6786   2.887   3.521   0.919
 2054SOL    HW2 6787   2.751   3.516   0.828
 2055SOL     OW 6788   2.255   2.552   0.475
 2055SOL    HW1 6789   2.280   2.456   0.486
 2055SOL    HW2 6790   2.160   2.565   0.502
 2056SOL     OW 6791   3.398   2.088   1.728
 2056SOL    HW1 6792   3.408   2.108   1.825
 2056SOL    HW2 6793   3.328   2.016   1.716
 2057SOL     OW 6794   2.478   1.971   0.114
 2057SOL    HW1 6795   2.576   1.950   0.122
 2057SOL    HW2 6796   2.447   1.949   0.022
 2058SOL     OW 6797   2.630   2.141   1.757
 2058SOL    HW1 6798   2.704   2.074   1.750
 2058SOL    HW2 6799   2.571   2.117   1.835
 2059SOL     OW 6800   2.737   3.372   1.195
 2059SOL    HW1 6801   2.726   3.338   1.101
 2059SOL    HW2 6802   2.810   3.323   1.240
 2060SOL     OW 6803   3.204   2.455   1.437
 2060SOL    HW1 6804   3.234   2.413   1.522
 2060SOL    HW2 6805   3.244   2.546   1.428
 2061SOL     OW 6806   2.683   3.251   0.925
 2061SOL    HW1 6807   2.763   3.275   0.870
 2061SOL    HW2 6808   2.601   3.250   0.868
 2062SOL     OW 6809   2.786   2.375   0.899
 2062SOL    HW1 6810   2.759   2.367   0.803
 2062SOL    HW2 6811   2.830   2.291   0.929
 2063SOL     OW 6812   2.407   1.926   0.505
 2063SOL    HW1 6813   2.324   1.924   0.560
 2063SOL    HW2 6814   2.406   2.007   0.446
 2064SOL     OW 6815   2.801   2.109   0.463
 2064SOL    HW1 6816   2.769   2.150   0.378
 2064SOL    HW2 6817   2.900   2.117   0.469
 2065SOL     OW 6818   2.944   2.540   1.458
 2065SOL    HW1 6819   2.868   2.475   1.460
 2065SOL    HW2 6820   3.030   2.491   1.447
 2066SOL     OW 6821   3.080   3.451   0.801
 2066SOL    HW1 6822   3.098   3.513   0.725
 2066SOL    HW2 6823   3.148   3.465   0.873
 2067SOL     OW 6824   2.324   3.007   0.742
 2067SOL    HW1 6825   2.256   2.981   0.810
 2067SOL    HW2 6826   2.288   2.990   0.651
 2068SOL     OW 6827   3.130   3.658   0.605
 2068SOL    HW1 6828   3.177   3.726   0.549
 2068SOL    HW2 6829   3.052   3.701   0.650
 2069SOL     OW 6830   2.890   2.381   0.045
 2069SOL    HW1 6831   2.872   2.461  -0.012
 2069SOL    HW2 6832   2.967   2.399   0.106
 2070SOL     OW 6833   1.941   2.422   1.385
 2070SOL    HW1 6834   2.036   2.410   1.357
 2070SOL    HW2 6835   1.935   2.491   1.457
 2071SOL     OW 6836   2.424   2.084   1.170
 2071SOL    HW1 6837   2.471   2.000   1.196
 2071SOL    HW2 6838   2.334   2.087   1.212
 2072SOL     OW 6839   2.731   2.321   0.638
 2072SOL    HW1 6840   2.681   2.382   0.576
 2072SOL    HW2 6841   2.754   2.237   0.590
 2073SOL     OW 6842   2.894   1.891   0.726
 2073SOL    HW1 6843   2.817   1.904   0.662
 2073SOL    HW2 6844   2.865   1.832   0.801
 2074SOL     OW 6845   3.321   3.011   0.859
 2074SOL    HW1 6846   3.235   2.960   0.859
 2074SOL    HW2 6847   3.338   3.047   0.768
 2075SOL     OW 6848   3.333   2.464   0.985
 2075SOL    HW1 6849   3.283   2.378   0.999
 2075SOL    HW2 6850   3.401   2.475   1.057
 2076SOL     OW 6851   3.746   2.696   0.434
 2076SOL    HW1 6852   3.787   2.609   0.460
 2076SOL    HW2 6853   3.703   2.687   0.344
 2077SOL     OW 6854   2.350   3.283   0.170
 2077SOL    HW1 6855   2.285   3.252   0.239
 2077SOL    HW2 6856   2.322   3.249   0.080
 2078SOL     OW 6857   3.532   3.133   0.653
 2078SOL    HW1 6858   3.632   3.138   0.662
 2078SOL    HW2 6859   3.493   3.223   0.673
 2079SOL     OW 6860   3.255   2.437   0.087
 2079SOL    HW1 6861   3.189   2.422   0.160
 2079SOL    HW2 6862   3.336   2.380   0.103
 2080SOL     OW 6863   2.388   2.124   0.322
 2080SOL    HW1 6864   2.422   2.063   0.250
 2080SOL    HW2 6865   2.367   2.214   0.283
 2081SOL     OW 6866   3.617   3.097   1.575
 2081SOL    HW1 6867   3.707   3.055   1.571
 2081SOL    HW2 6868   3.626   3.192   1.605
 2082SOL     OW 6869   2.921   3.236   1.359
 2082SOL    HW1 6870   2.839   3.192   1.395
 2082SOL    HW2 6871   3.001   3.181   1.381
 2083SOL     OW 6872   3.472   3.489   1.653
 2083SOL    HW1 6873   3.461   3.525   1.560
 2083SOL    HW2 6874   3.559   3.439   1.659
 2084SOL     OW 6875   3.493   2.959   1.079
 2084SOL    HW1 6876   3.486   3.025   1.154
 2084SOL    HW2 6877   3.419   2.975   1.013
 2085SOL     OW 6878   2.780   1.959   1.395
 2085SOL    HW1 6879   2.802   1.929   1.302
 2085SOL    HW2 6880   2.861   2.002   1.436
 2086SOL     OW 6881   2.838   2.984   1.709
 2086SOL    HW1 6882   2.743   2.994   1.739
 2086SOL    HW2 6883   2.849   2.896   1.663
 2087SOL     OW 6884   2.571   2.920   0.374
 2087SOL    HW1 6885   2.547   2.910   0.470
 2087SOL    HW2 6886   2.655   2.869   0.355
 2088SOL     OW 6887   2.282   2.669   1.250
 2088SOL    HW1 6888   2.354   2.687   1.317
 2088SOL    HW2 6889   2.239   2.581   1.271
 2089SOL     OW 6890   1.932   3.437   1.346
 2089SOL    HW1 6891   1.890   3.511   1.292
 2089SOL    HW2 6892   2.031   3.450   1.350
 2090SOL     OW 6893   2.217   2.965   0.497
 2090SOL    HW1 6894   2.214   3.052   0.448
 2090SOL    HW2 6895   2.207   2.889   0.433
 2091SOL     OW 6896   2.413   2.396   0.865
 2091SOL    HW1 6897   2.423   2.456   0.786
 2091SOL    HW2 6898   2.472   2.428   0.939
 2092SOL     OW 6899   3.114   3.210   0.411
 2092SOL    HW1 6900   3.166   3.290   0.441
 2092SOL    HW2 6901   3.017   3.227   0.426
 2093SOL     OW 6902   3.448   2.491   0.475
 2093SOL    HW1 6903   3.396   2.537   0.547
 2093SOL    HW2 6904   3.488   2.560   0.414
 2094SOL     OW 6905   2.216   3.380   1.316
 2094SOL    HW1 6906   2.191   3.338   1.228
 2094SOL    HW2 6907   2.315   3.398   1.317
 2095SOL     OW 6908   2.275   2.607   1.599
 2095SOL    HW1 6909   2.341   2.654   1.541
 2095SOL    HW2 6910   2.310   2.517   1.624
 2096SOL     OW 6911   3.462   2.646   1.680
 2096SOL    HW1 6912   3.370   2.687   1.677
 2096SOL    HW2 6913   3.518   2.687   1.608
 2097SOL     OW 6914   2.849   1.975   1.732
 2097SOL    HW1 6915   2.905   2.057   1.717
 2097SOL    HW2 6916   2.902   1.894   1.710
 2098SOL     OW 6917   2.357   1.906   1.747
 2098SOL    HW1 6918   2.318   1.846   1.677
 2098SOL    HW2 6919   2.297   1.985   1.760
 2099SOL     OW 6920   2.445   2.735   1.032
 2099SOL    HW1 6921   2.486   2.826   1.028
 2099SOL    HW2 6922   2.386   2.728   1.112
 2100SOL     OW 6923   3.219   2.714   1.053
 2100SOL    HW1 6924   3.140   2.728   0.993
 2100SOL    HW2 6925   3.259   2.624   1.037
 2101SOL     OW 6926   3.072   2.395   0.278
 2101SOL    HW1 6927   3.076   2.310   0.330
 2101SOL    HW2 6928   3.023   2.464   0.331
 2102SOL     OW 6929   1.862   3.177   1.310
 2102SOL    HW1 6930   1.920   3.115   1.363
 2102SOL    HW2 6931   1.895   3.271   1.323
 2103SOL     OW 6932   2.585   2.495   1.058
 2103SOL    HW1 6933   2.659   2.471   0.995
 2103SOL    HW2 6934   2.552   2.587   1.038
 2104SOL     OW 6935   3.592   2.825   1.850
 2104SOL    HW1 6936   3.550   2.761   1.785
 2104SOL    HW2 6937   3.535   2.831   1.932
 2105SOL     OW 6938   2.160   1.927   0.623
 2105SOL    HW1 6939   2.143   2.022   0.649
 2105SOL    HW2 6940   2.174   1.872   0.705
 2106SOL     OW 6941   3.481   2.237   0.370
 2106SOL    HW1 6942   3.503   2.165   0.436
 2106SOL    HW2 6943   3.451   2.319   0.420
 2107SOL     OW 6944   2.886   2.621   0.963
 2107SOL    HW1 6945   2.889   2.642   1.060
 2107SOL    HW2 6946   2.854   2.527   0.950
 2108SOL     OW 6947   2.845   3.426   1.714
 2108SOL    HW1 6948   2.826   3.476   1.629
 2108SOL    HW2 6949   2.891   3.339   1.692
 2109SOL     OW 6950   3.719   3.372   1.605
 2109SOL    HW1 6951   3.732   3.396   1.509
 2109SOL    HW2 6952   3.804   3.388   1.656
 2110SOL     OW 6953   2.223   2.782   1.802
 2110SOL    HW1 6954   2.305   2.792   1.859
 2110SOL    HW2 6955   2.241   2.715   1.730
 2111SOL     OW 6956   3.396   2.069   0.144
 2111SOL    HW1 6957   3.309   2.061   0.192
 2111SOL    HW2 6958   3.448   2.145   0.183
 2112SOL     OW 6959   3.147   2.680   0.038
 2112SOL    HW1 6960   3.194   2.593   0.050
 2112SOL    HW2 6961   3.175   2.722  -0.048
 2113SOL     OW 6962   2.180   2.673   0.935
 2113SOL    HW1 6963   2.277   2.699   0.930
 2113SOL    HW2 6964   2.170   2.593   0.994
 2114SOL     OW 6965   2.997   2.236   1.687
 2114SOL    HW1 6966   2.944   2.295   1.747
 2114SOL    HW2 6967   3.089   2.273   1.676
 2115SOL     OW 6968   3.018   2.070   1.471
 2115SOL    HW1 6969   3.010   2.131   1.550
 2115SOL    HW2 6970   3.046   2.124   1.391
 2116SOL     OW 6971   1.825   3.173   0.245
 2116SOL    HW1 6972   1.755   3.202   0.180
 2116SOL    HW2 6973   1.893   3.116   0.199
 2117SOL     OW 6974   1.959   3.646   0.955
 2117SOL    HW1 6975   1.918   3.571   0.904
 2117SOL    HW2 6976   2.048   3.670   0.914
 2118SOL     OW 6977   2.359   3.438   0.912
 2118SOL    HW1 6978   2.431   3.505   0.934
 2118SOL    HW2 6979   2.397   3.368   0.852
 2119SOL     OW 6980   2.849   2.658   1.229
 2119SOL    HW1 6981   2.905   2.630   1.307
 2119SOL    HW2 6982   2.757   2.621   1.240
 2120SOL     OW 6983   1.894   2.407   1.117
 2120SOL    HW1 6984   1.976   2.377   1.067
 2120SOL    HW2 6985   1.916   2.416   1.214
 2121SOL     OW 6986   2.064   2.380   1.729
 2121SOL    HW1 6987   2.101   2.321   1.657
 2121SOL    HW2 6988   2.002   2.448   1.688
 2122SOL     OW 6989   3.238   2.803   1.656
 2122SOL    HW1 6990   3.260   2.900   1.661
 2122SOL    HW2 6991   3.235   2.774   1.561
 2123SOL     OW 6992   2.678   2.433   0.354
 2123SOL    HW1 6993   2.688   2.353   0.295
 2123SOL    HW2 6994   2.599   2.486   0.324
 2124SOL     OW 6995   3.508   2.467   1.188
 2124SOL    HW1 6996   3.489   2.409   1.267
 2124SOL    HW2 6997   3.598   2.445   1.151
 2125SOL     OW 6998   2.104   3.414   1.732
 2125SOL    HW1 6999   2.080   3.490   1.792
 2125SOL    HW2 7000   2.115   3.331   1.787
 2126SOL     OW 7001   2.552   2.318   1.260
 2126SOL    HW1 7002   2.506   2.235   1.230
 2126SOL    HW2 7003   2.557   2.383   1.184
 2127SOL     OW 7004   2.784   3.545   1.472
 2127SOL    HW1 7005   2.766   3.502   1.383
 2127SOL    HW2 7006   2.789   3.645   1.461
 2128SOL     OW 7007   2.317   2.354   0.200
 2128SOL    HW1 7008   2.395   2.417   0.207
 2128SOL    HW2 7009   2.233   2.407   0.192
 2129SOL     OW 7010   2.011   2.998   1.472
 2129SOL    HW1 7011   2.008   2.948   1.559
 2129SOL    HW2 7012   2.028   2.934   1.397
 2130SOL     OW 7013   3.162   2.711   0.308
 2130SOL    HW1 7014   3.082   2.686   0.362
 2130SOL    HW2 7015   3.143   2.697   0.211
 2131SOL     OW 7016   3.631   3.608   1.149
 2131SOL    HW1 7017   3.695   3.640   1.080
 2131SOL    HW2 7018   3.603   3.514   1.128
 2132SOL     OW 7019   3.105   3.594   1.110
 2132SOL    HW1 7020   3.193   3.613   1.066
 2132SOL    HW2 7021   3.111   3.509   1.162
 2133SOL     OW 7022   2.544   3.530   1.726
 2133SOL    HW1 7023   2.486   3.612   1.724
 2133SOL    HW2 7024   2.610   3.535   1.651
 2134SOL     OW 7025   3.581   2.003   0.512
 2134SOL    HW1 7026   3.655   1.990   0.446
 2134SOL    HW2 7027   3.560   1.917   0.557
 2135SOL     OW 7028   3.248   3.434   0.492
 2135SOL    HW1 7029   3.319   3.462   0.428
 2135SOL    HW2 7030   3.198   3.515   0.524
 2136SOL     OW 7031   1.998   3.650   1.845
 2136SOL    HW1 7032   1.941   3.583   1.893
 2136SOL    HW2 7033   2.059   3.696   1.910
 2137SOL     OW 7034   3.142   2.784   0.668
 2137SOL    HW1 7035   3.218   2.721   0.677
 2137SOL    HW2 7036   3.172   2.865   0.616
 2138SOL     OW 7037   2.677   3.134   1.431
 2138SOL    HW1 7038   2.648   3.175   1.518
 2138SOL    HW2 7039   2.608   3.155   1.361
 2139SOL     OW 7040   2.539   3.473   0.162
 2139SOL    HW1 7041   2.538   3.499   0.065
 2139SOL    HW2 7042   2.478   3.394   0.175
 2140SOL     OW 7043   3.491   3.591   1.391
 2140SOL    HW1 7044   3.541   3.595   1.304
 2140SOL    HW2 7045   3.476   3.684   1.425
 2141SOL     OW 7046   3.700   2.039   0.963
 2141SOL    HW1 7047   3.735   1.949   0.937
 2141SOL    HW2 7048   3.607   2.051   0.928
 2142SOL     OW 7049   2.123   2.179   0.713
 2142SOL    HW1 7050   2.034   2.216   0.688
 2142SOL    HW2 7051   2.135   2.184   0.813
 2143SOL     OW 7052   3.034   3.481   0.041
 2143SOL    HW1 7053   3.045   3.400   0.098
 2143SOL    HW2 7054   3.034   3.454  -0.055
 2144SOL     OW 7055   2.686   2.870   1.374
 2144SOL    HW1 7056   2.737   2.858   1.288
 2144SOL    HW2 7057   2.687   2.966   1.400
 2145SOL     OW 7058   2.791   2.781   0.320
 2145SOL    HW1 7059   2.811   2.793   0.223
 2145SOL    HW2 7060   2.837   2.699   0.355
 2146SOL     OW 7061   3.320   3.430   0.019
 2146SOL    HW1 7062   3.248   3.494   0.048
 2146SOL    HW2 7063   3.398   3.481  -0.017
 2147SOL     OW 7064   2.225   3.164   1.497
 2147SOL    HW1 7065   2.218   3.246   1.439
 2147SOL    HW2 7066   2.147   3.104   1.478
 2148SOL     OW 7067   3.466   3.137   1.286
 2148SOL    HW1 7068   3.542   3.133   1.352
 2148SOL    HW2 7069   3.410   3.217   1.305
 2149SOL     OW 7070   2.900   2.961   0.691
 2149SOL    HW1 7071   2.833   2.910   0.746
 2149SOL    HW2 7072   2.974   2.899   0.665
 2150SOL     OW 7073   2.464   3.348   0.483
 2150SOL    HW1 7074   2.508   3.298   0.409
 2150SOL    HW2 7075   2.397   3.412   0.444
 2151SOL     OW 7076   3.586   2.256   1.380
 2151SOL    HW1 7077   3.659   2.325   1.381
 2151SOL    HW2 7078   3.613   2.180   1.322
 2152SOL     OW 7079   1.973   2.869   1.709
 2152SOL    HW1 7080   1.892   2.857   1.766
 2152SOL    HW2 7081   2.054   2.838   1.759
 2153SOL     OW 7082   2.540   2.059   1.499
 2153SOL    HW1 7083   2.627   2.037   1.454
 2153SOL    HW2 7084   2.558   2.090   1.593
 2154SOL     OW 7085   3.289   2.725   1.394
 2154SOL    HW1 7086   3.231   2.747   1.315
 2154SOL    HW2 7087   3.385   2.733   1.367
 2155SOL     OW 7088   1.923   2.016   0.335
 2155SOL    HW1 7089   1.907   2.107   0.296
 2155SOL    HW2 7090   2.021   1.995   0.331
 2156SOL     OW 7091   2.482   2.694   1.430
 2156SOL    HW1 7092   2.539   2.775   1.416
 2156SOL    HW2 7093   2.542   2.614   1.442
 2157SOL     OW 7094   3.352   3.628   0.975
 2157SOL    HW1 7095   3.374   3.687   0.898
 2157SOL    HW2 7096   3.431   3.622   1.036
 2158SOL     OW 7097   2.583   2.424   1.705
 2158SOL    HW1 7098   2.618   2.493   1.768
 2158SOL    HW2 7099   2.611   2.333   1.736
 2159SOL     OW 7100   3.334   3.068   1.630
 2159SOL    HW1 7101   3.327   3.073   1.730
 2159SOL    HW2 7102   3.429   3.079   1.603
 2160SOL     OW 7103   2.243   3.601   1.566
 2160SOL    HW1 7104   2.157   3.648   1.549
 2160SOL    HW2 7105   2.226   3.511   1.607
 2161SOL     OW 7106   3.534   2.744   1.255
 2161SOL    HW1 7107   3.525   2.652   1.216
 2161SOL    HW2 7108   3.521   2.812   1.183
 2162SOL     OW 7109   3.082   2.181   0.457
 2162SOL    HW1 7110   3.147   2.105   0.445
 2162SOL    HW2 7111   3.108   2.234   0.538
 2163SOL     OW 7112   2.451   2.601   0.667
 2163SOL    HW1 7113   2.494   2.691   0.655
 2163SOL    HW2 7114   2.378   2.590   0.599
 2164SOL     OW 7115   3.620   2.224   1.651
 2164SOL    HW1 7116   3.608   2.238   1.552
 2164SOL    HW2 7117   3.546   2.165   1.685
 2165SOL     OW 7118   3.606   2.796   1.510
 2165SOL    HW1 7119   3.607   2.894   1.530
 2165SOL    HW2 7120   3.592   2.782   1.412
 2166SOL     OW 7121   2.707   3.226   0.030
 2166SOL    HW1 7122   2.680   3.232   0.126
 2166SOL    HW2 7123   2.745   3.314   0.001
 2167SOL     OW 7124   2.524   3.658   0.949
 2167SOL    HW1 7125   2.500   3.750   0.920
 2167SOL    HW2 7126   2.622   3.644   0.939
 2168SOL     OW 7127   2.728   2.825   0.857
 2168SOL    HW1 7128   2.783   2.752   0.897
 2168SOL    HW2 7129   2.692   2.884   0.930
 2169SOL     OW 7130   3.717   3.417   0.855
 2169SOL    HW1 7131   3.644   3.401   0.787
 2169SOL    HW2 7132   3.723   3.339   0.917
 2170SOL     OW 7133   1.942   3.096   0.667
 2170SOL    HW1 7134   1.922   3.033   0.742
 2170SOL    HW2 7135   2.012   3.055   0.608
 2171SOL     OW 7136   2.535   3.266   1.624
 2171SOL    HW1 7137   2.456   3.216   1.660
 2171SOL    HW2 7138   2.539   3.357   1.666
 2172SOL     OW 7139   3.674   2.051   1.234
 2172SOL    HW1 7140   3.692   1.956   1.261
 2172SOL    HW2 7141   3.686   2.060   1.135
 2173SOL     OW 7142   2.294   2.292   0.524
 2173SOL    HW1 7143   2.329   2.221   0.463
 2173SOL    HW2 7144   2.242   2.250   0.598
 2174SOL     OW 7145   3.552   3.358   1.112
 2174SOL    HW1 7146   3.463   3.319   1.085
 2174SOL    HW2 7147   3.603   3.290   1.164
 2175SOL     OW 7148   2.196   2.404   1.281
 2175SOL    HW1 7149   2.238   2.359   1.360
 2175SOL    HW2 7150   2.245   2.379   1.198
 2176SOL     OW 7151   2.687   3.441   0.686
 2176SOL    HW1 7152   2.689   3.491   0.600
 2176SOL    HW2 7153   2.605   3.383   0.689
 2177SOL     OW 7154   2.641   3.186   0.306
 2177SOL    HW1 7155   2.605   3.095   0.326
 2177SOL    HW2 7156   2.722   3.203   0.362
 2178SOL     OW 7157   2.484   3.422   1.284
 2178SOL    HW1 7158   2.484   3.507   1.337
 2178SOL    HW2 7159   2.575   3.407   1.245
 2179SOL     OW 7160   3.153   2.324   0.682
 2179SOL    HW1 7161   3.099   2.409   0.685
 2179SOL    HW2 7162   3.155   2.284   0.774
 2180SOL     OW 7163   3.447   2.075   0.879
 2180SOL    HW1 7164   3.360   2.075   0.928
 2180SOL    HW2 7165   3.453   2.156   0.821
 2181SOL     OW 7166   2.741   3.518   0.347
 2181SOL    HW1 7167   2.670   3.495   0.281
 2181SOL    HW2 7168   2.712   3.596   0.402
 2182SOL     OW 7169   2.090   2.475   1.983
 2182SOL    HW1 7170   1.998   2.488   2.022
 2182SOL    HW2 7171   2.083   2.445   1.888
 2183SOL     OW 7172   1.865   2.242   2.500
 2183SOL    HW1 7173   1.782   2.277   2.543
 2183SOL    HW2 7174   1.844   2.156   2.452
 2184SOL     OW 7175   2.436   3.150   3.039
 2184SOL    HW1 7176   2.344   3.140   3.002
 2184SOL    HW2 7177   2.448   3.242   3.074
 2185SOL     OW 7178   3.419   3.372   2.571
 2185SOL    HW1 7179   3.372   3.353   2.658
 2185SOL    HW2 7180   3.351   3.384   2.498
 2186SOL     OW 7181   2.991   2.561   2.567
 2186SOL    HW1 7182   3.045   2.642   2.544
 2186SOL    HW2 7183   2.942   2.577   2.652
 2187SOL     OW 7184   3.621   2.472   2.090
 2187SOL    HW1 7185   3.605   2.462   1.992
 2187SOL    HW2 7186   3.599   2.386   2.136
 2188SOL     OW 7187   2.616   3.005   2.895
 2188SOL    HW1 7188   2.548   3.040   2.959
 2188SOL    HW2 7189   2.662   3.081   2.850
 2189SOL     OW 7190   2.720   2.638   3.677
 2189SOL    HW1 7191   2.717   2.707   3.750
 2189SOL    HW2 7192   2.748   2.682   3.592
 2190SOL     OW 7193   2.550   2.866   2.513
 2190SOL    HW1 7194   2.620   2.850   2.582
 2190SOL    HW2 7195   2.476   2.920   2.554
 2191SOL     OW 7196   2.571   3.017   3.670
 2191SOL    HW1 7197   2.622   3.099   3.697
 2191SOL    HW2 7198   2.481   3.043   3.636
 2192SOL     OW 7199   2.176   3.347   2.910
 2192SOL    HW1 7200   2.112   3.301   2.848
 2192SOL    HW2 7201   2.253   3.384   2.858
 2193SOL     OW 7202   3.325   3.365   3.205
 2193SOL    HW1 7203   3.377   3.450   3.217
 2193SOL    HW2 7204   3.264   3.351   3.283
 2194SOL     OW 7205   2.308   2.250   3.328
 2194SOL    HW1 7206   2.388   2.195   3.352
 2194SOL    HW2 7207   2.226   2.208   3.366
 2195SOL     OW 7208   3.477   2.315   2.601
 2195SOL    HW1 7209   3.395   2.333   2.547
 2195SOL    HW2 7210   3.495   2.392   2.662
 2196SOL     OW 7211   2.082   3.575   2.333
 2196SOL    HW1 7212   2.104   3.652   2.393
 2196SOL    HW2 7213   2.157   3.560   2.268
 2197SOL     OW 7214   2.993   3.203   3.550
 2197SOL    HW1 7215   3.063   3.187   3.619
 2197SOL    HW2 7216   2.934   3.123   3.544
 2198SOL     OW 7217   2.097   3.301   2.405
 2198SOL    HW1 7218   2.080   3.398   2.388
 2198SOL    HW2 7219   2.020   3.261   2.455
 2199SOL     OW 7220   2.115   2.948   2.731
 2199SOL    HW1 7221   2.129   2.854   2.761
 2199SOL    HW2 7222   2.036   2.986   2.779
 2200SOL     OW 7223   2.474   3.653   3.295
 2200SOL    HW1 7224   2.388   3.631   3.339
 2200SOL    HW2 7225   2.501   3.747   3.318
 2201SOL     OW 7226   2.457   2.842   1.991
 2201SOL    HW1 7227   2.499   2.899   1.920
 2201SOL    HW2 7228   2.491   2.870   2.080
 2202SOL     OW 7229   3.455   1.981   3.336
 2202SOL    HW1 7230   3.457   2.056   3.270
 2202SOL    HW2 7231   3.449   2.018   3.428
 2203SOL     OW 7232   1.978   2.515   2.424
 2203SOL    HW1 7233   1.942   2.423   2.438
 2203SOL    HW2 7234   1.968   2.568   2.508
 2204SOL     OW 7235   3.704   3.633   2.198
 2204SOL    HW1 7236   3.762   3.592   2.269
 2204SOL    HW2 7237   3.749   3.714   2.160
 2205SOL     OW 7238   1.889   3.459   1.995
 2205SOL    HW1 7239   1.868   3.364   2.019
 2205SOL    HW2 7240   1.866   3.519   2.072
 2206SOL     OW 7241   3.552   2.781   2.502
 2206SOL    HW1 7242   3.639   2.735   2.485
 2206SOL    HW2 7243   3.525   2.833   2.421
 2207SOL     OW 7244   3.502   2.970   2.295
 2207SOL    HW1 7245   3.590   2.967   2.248
 2207SOL    HW2 7246   3.507   3.034   2.372
 2208SOL     OW 7247   1.982   2.604   3.450
 2208SOL    HW1 7248   2.080   2.623   3.456
 2208SOL    HW2 7249   1.931   2.691   3.446
 2209SOL     OW 7250   2.475   3.246   2.597
 2209SOL    HW1 7251   2.428   3.159   2.608
 2209SOL    HW2 7252   2.461   3.280   2.504
 2210SOL     OW 7253   2.672   1.863   2.365
 2210SOL    HW1 7254   2.715   1.952   2.349
 2210SOL    HW2 7255   2.573   1.877   2.377
 2211SOL     OW 7256   2.052   2.780   3.183
 2211SOL    HW1 7257   2.143   2.752   3.152
 2211SOL    HW2 7258   1.984   2.756   3.113
 2212SOL     OW 7259   3.399   2.852   2.062
 2212SOL    HW1 7260   3.322   2.791   2.082
 2212SOL    HW2 7261   3.436   2.889   2.147
 2213SOL     OW 7262   3.047   3.664   3.485
 2213SOL    HW1 7263   3.057   3.733   3.413
 2213SOL    HW2 7264   3.066   3.573   3.448
 2214SOL     OW 7265   2.194   2.110   3.677
 2214SOL    HW1 7266   2.251   2.190   3.694
 2214SOL    HW2 7267   2.100   2.128   3.706
 2215SOL     OW 7268   3.319   3.283   2.821
 2215SOL    HW1 7269   3.269   3.286   2.908
 2215SOL    HW2 7270   3.313   3.190   2.783
 2216SOL     OW 7271   3.521   3.593   2.440
 2216SOL    HW1 7272   3.492   3.572   2.347
 2216SOL    HW2 7273   3.493   3.519   2.501
 2217SOL     OW 7274   2.458   2.589   2.132
 2217SOL    HW1 7275   2.468   2.667   2.071
 2217SOL    HW2 7276   2.384   2.605   2.197
 2218SOL     OW 7277   3.162   2.197   2.797
 2218SOL    HW1 7278   3.077   2.155   2.766
 2218SOL    HW2 7279   3.184   2.164   2.889
 2219SOL     OW 7280   3.447   3.528   2.168
 2219SOL    HW1 7281   3.539   3.567   2.167
 2219SOL    HW2 7282   3.417   3.512   2.075
 2220SOL     OW 7283   2.652   2.476   3.315
 2220SOL    HW1 7284   2.628   2.456   3.410
 2220SOL    HW2 7285   2.605   2.412   3.254
 2221SOL     OW 7286   3.253   2.332   3.538
 2221SOL    HW1 7287   3.250   2.380   3.625
 2221SOL    HW2 7288   3.320   2.257   3.545
 2222SOL     OW 7289   2.821   2.749   3.440
 2222SOL    HW1 7290   2.877   2.674   3.406
 2222SOL    HW2 7291   2.769   2.789   3.365
 2223SOL     OW 7292   2.832   2.284   3.100
 2223SOL    HW1 7293   2.754   2.318   3.154
 2223SOL    HW2 7294   2.799   2.223   3.028
 2224SOL     OW 7295   2.903   2.570   2.290
 2224SOL    HW1 7296   2.929   2.557   2.386
 2224SOL    HW2 7297   2.824   2.513   2.269
 2225SOL     OW 7298   1.950   2.680   2.641
 2225SOL    HW1 7299   2.038   2.674   2.688
 2225SOL    HW2 7300   1.900   2.760   2.673
 2226SOL     OW 7301   1.995   3.714   3.444
 2226SOL    HW1 7302   1.988   3.686   3.540
 2226SOL    HW2 7303   1.906   3.699   3.399
 2227SOL     OW 7304   2.742   2.219   2.062
 2227SOL    HW1 7305   2.784   2.281   1.996
 2227SOL    HW2 7306   2.735   2.127   2.022
 2228SOL     OW 7307   3.569   2.439   3.688
 2228SOL    HW1 7308   3.532   2.519   3.640
 2228SOL    HW2 7309   3.598   2.371   3.621
 2229SOL     OW 7310   3.241   3.004   2.414
 2229SOL    HW1 7311   3.322   2.989   2.356
 2229SOL    HW2 7312   3.183   3.073   2.372
 2230SOL     OW 7313   2.400   2.048   2.757
 2230SOL    HW1 7314   2.410   2.070   2.854
 2230SOL    HW2 7315   2.416   2.131   2.703
 2231SOL     OW 7316   2.846   3.301   2.326
 2231SOL    HW1 7317   2.823   3.387   2.282
 2231SOL    HW2 7318   2.871   3.318   2.421
 2232SOL     OW 7319   2.219   3.671   2.720
 2232SOL    HW1 7320   2.262   3.581   2.728
 2232SOL    HW2 7321   2.286   3.743   2.740
 2233SOL     OW 7322   3.671   2.923   2.718
 2233SOL    HW1 7323   3.604   2.898   2.648
 2233SOL    HW2 7324   3.625   2.940   2.805
 2234SOL     OW 7325   3.094   3.397   3.375
 2234SOL    HW1 7326   3.072   3.323   3.439
 2234SOL    HW2 7327   3.026   3.399   3.303
 2235SOL     OW 7328   2.210   2.772   2.119
 2235SOL    HW1 7329   2.283   2.816   2.066
 2235SOL    HW2 7330   2.159   2.709   2.060
 2236SOL     OW 7331   3.340   2.606   2.590
 2236SOL    HW1 7332   3.329   2.557   2.676
 2236SOL    HW2 7333   3.421   2.665   2.595
 2237SOL     OW 7334   2.328   3.118   3.597
 2237SOL    HW1 7335   2.295   3.128   3.504
 2237SOL    HW2 7336   2.252   3.128   3.661
 2238SOL     OW 7337   2.981   3.642   2.091
 2238SOL    HW1 7338   2.907   3.599   2.143
 2238SOL    HW2 7339   3.006   3.583   2.014
 2239SOL     OW 7340   2.062   2.166   3.411
 2239SOL    HW1 7341   1.972   2.195   3.381
 2239SOL    HW2 7342   2.056   2.077   3.456
 2240SOL     OW 7343   3.489   3.242   1.949
 2240SOL    HW1 7344   3.449   3.332   1.933
 2240SOL    HW2 7345   3.424   3.171   1.925
 2241SOL     OW 7346   2.334   3.592   2.187
 2241SOL    HW1 7347   2.370   3.655   2.256
 2241SOL    HW2 7348   2.408   3.566   2.125
 2242SOL     OW 7349   2.112   3.645   3.097
 2242SOL    HW1 7350   2.167   3.580   3.148
 2242SOL    HW2 7351   2.103   3.615   3.002
 2243SOL     OW 7352   2.798   3.562   2.765
 2243SOL    HW1 7353   2.882   3.511   2.785
 2243SOL    HW2 7354   2.749   3.516   2.691
 2244SOL     OW 7355   2.257   2.551   2.348
 2244SOL    HW1 7356   2.277   2.453   2.355
 2244SOL    HW2 7357   2.158   2.564   2.357
 2245SOL     OW 7358   3.399   2.086   3.591
 2245SOL    HW1 7359   3.407   2.112   3.687
 2245SOL    HW2 7360   3.332   2.013   3.582
 2246SOL     OW 7361   2.502   1.988   1.964
 2246SOL    HW1 7362   2.570   1.918   1.985
 2246SOL    HW2 7363   2.441   1.955   1.891
 2247SOL     OW 7364   2.629   2.138   3.616
 2247SOL    HW1 7365   2.709   2.078   3.616
 2247SOL    HW2 7366   2.572   2.118   3.696
 2248SOL     OW 7367   2.739   3.374   3.051
 2248SOL    HW1 7368   2.719   3.347   2.957
 2248SOL    HW2 7369   2.783   3.298   3.099
 2249SOL     OW 7370   3.203   2.456   3.297
 2249SOL    HW1 7371   3.232   2.413   3.383
 2249SOL    HW2 7372   3.245   2.546   3.289
 2250SOL     OW 7373   2.678   3.259   2.798
 2250SOL    HW1 7374   2.768   3.248   2.756
 2250SOL    HW2 7375   2.607   3.257   2.727
 2251SOL     OW 7376   2.783   2.379   2.761
 2251SOL    HW1 7377   2.758   2.367   2.665
 2251SOL    HW2 7378   2.832   2.298   2.793
 2252SOL     OW 7379   2.407   1.927   2.363
 2252SOL    HW1 7380   2.322   1.926   2.417
 2252SOL    HW2 7381   2.409   2.009   2.306
 2253SOL     OW 7382   3.308   3.047   1.896
 2253SOL    HW1 7383   3.353   2.972   1.943
 2253SOL    HW2 7384   3.215   3.058   1.931
 2254SOL     OW 7385   2.791   2.106   2.326
 2254SOL    HW1 7386   2.760   2.154   2.244
 2254SOL    HW2 7387   2.891   2.104   2.327
 2255SOL     OW 7388   2.944   2.540   3.320
 2255SOL    HW1 7389   2.869   2.475   3.325
 2255SOL    HW2 7390   3.030   2.491   3.309
 2256SOL     OW 7391   3.089   3.435   2.658
 2256SOL    HW1 7392   3.100   3.504   2.587
 2256SOL    HW2 7393   3.166   3.438   2.720
 2257SOL     OW 7394   2.330   3.011   2.587
 2257SOL    HW1 7395   2.255   2.994   2.651
 2257SOL    HW2 7396   2.299   2.994   2.494
 2258SOL     OW 7397   3.127   3.654   2.472
 2258SOL    HW1 7398   3.178   3.714   2.411
 2258SOL    HW2 7399   3.054   3.706   2.517
 2259SOL     OW 7400   2.881   2.412   1.883
 2259SOL    HW1 7401   2.829   2.491   1.851
 2259SOL    HW2 7402   2.956   2.442   1.941
 2260SOL     OW 7403   1.939   2.423   3.251
 2260SOL    HW1 7404   2.034   2.415   3.223
 2260SOL    HW2 7405   1.930   2.493   3.322
 2261SOL     OW 7406   2.422   2.081   3.029
 2261SOL    HW1 7407   2.467   1.997   3.060
 2261SOL    HW2 7408   2.335   2.091   3.077
 2262SOL     OW 7409   2.728   2.320   2.502
 2262SOL    HW1 7410   2.683   2.384   2.440
 2262SOL    HW2 7411   2.748   2.235   2.453
 2263SOL     OW 7412   2.894   1.900   2.598
 2263SOL    HW1 7413   2.819   1.909   2.532
 2263SOL    HW2 7414   2.868   1.836   2.670
 2264SOL     OW 7415   3.299   3.030   2.719
 2264SOL    HW1 7416   3.233   2.955   2.729
 2264SOL    HW2 7417   3.324   3.040   2.623
 2265SOL     OW 7418   3.332   2.466   2.841
 2265SOL    HW1 7419   3.280   2.380   2.841
 2265SOL    HW2 7420   3.395   2.466   2.918
 2266SOL     OW 7421   3.704   2.685   2.249
 2266SOL    HW1 7422   3.770   2.634   2.305
 2266SOL    HW2 7423   3.677   2.628   2.171
 2267SOL     OW 7424   3.531   3.131   2.507
 2267SOL    HW1 7425   3.630   3.132   2.521
 2267SOL    HW2 7426   3.492   3.220   2.530
 2268SOL     OW 7427   3.259   2.431   1.938
 2268SOL    HW1 7428   3.220   2.408   2.027
 2268SOL    HW2 7429   3.358   2.413   1.939
 2269SOL     OW 7430   2.404   2.131   2.182
 2269SOL    HW1 7431   2.436   2.072   2.108
 2269SOL    HW2 7432   2.378   2.220   2.145
 2270SOL     OW 7433   3.618   3.096   3.439
 2270SOL    HW1 7434   3.708   3.053   3.435
 2270SOL    HW2 7435   3.628   3.192   3.465
 2271SOL     OW 7436   3.473   3.489   3.514
 2271SOL    HW1 7437   3.461   3.525   3.421
 2271SOL    HW2 7438   3.559   3.440   3.520
 2272SOL     OW 7439   3.498   2.959   2.940
 2272SOL    HW1 7440   3.494   3.026   3.015
 2272SOL    HW2 7441   3.416   2.967   2.884
 2273SOL     OW 7442   2.779   1.963   3.264
 2273SOL    HW1 7443   2.811   1.936   3.173
 2273SOL    HW2 7444   2.849   2.017   3.309
 2274SOL     OW 7445   2.842   2.977   3.580
 2274SOL    HW1 7446   2.747   2.996   3.605
 2274SOL    HW2 7447   2.846   2.895   3.522
 2275SOL     OW 7448   2.575   2.922   2.234
 2275SOL    HW1 7449   2.558   2.907   2.331
 2275SOL    HW2 7450   2.651   2.863   2.204
 2276SOL     OW 7451   2.291   2.669   3.110
 2276SOL    HW1 7452   2.362   2.686   3.178
 2276SOL    HW2 7453   2.249   2.580   3.127
 2277SOL     OW 7454   1.924   3.433   3.211
 2277SOL    HW1 7455   1.899   3.513   3.157
 2277SOL    HW2 7456   2.023   3.421   3.208
 2278SOL     OW 7457   2.413   2.405   2.726
 2278SOL    HW1 7458   2.427   2.462   2.646
 2278SOL    HW2 7459   2.479   2.430   2.797
 2279SOL     OW 7460   3.441   2.487   2.336
 2279SOL    HW1 7461   3.398   2.543   2.407
 2279SOL    HW2 7462   3.498   2.545   2.277
 2280SOL     OW 7463   2.214   3.384   3.177
 2280SOL    HW1 7464   2.192   3.361   3.082
 2280SOL    HW2 7465   2.312   3.399   3.185
 2281SOL     OW 7466   2.273   2.609   3.462
 2281SOL    HW1 7467   2.338   2.657   3.403
 2281SOL    HW2 7468   2.310   2.520   3.487
 2282SOL     OW 7469   3.464   2.647   3.543
 2282SOL    HW1 7470   3.372   2.686   3.538
 2282SOL    HW2 7471   3.521   2.686   3.470
 2283SOL     OW 7472   2.860   1.988   3.612
 2283SOL    HW1 7473   2.915   2.069   3.590
 2283SOL    HW2 7474   2.911   1.906   3.585
 2284SOL     OW 7475   2.357   1.904   3.609
 2284SOL    HW1 7476   2.317   1.846   3.539
 2284SOL    HW2 7477   2.295   1.980   3.629
 2285SOL     OW 7478   2.445   2.735   2.890
 2285SOL    HW1 7479   2.485   2.827   2.890
 2285SOL    HW2 7480   2.389   2.724   2.973
 2286SOL     OW 7481   3.222   2.721   2.901
 2286SOL    HW1 7482   3.135   2.721   2.853
 2286SOL    HW2 7483   3.264   2.630   2.895
 2287SOL     OW 7484   2.585   2.495   2.919
 2287SOL    HW1 7485   2.662   2.472   2.860
 2287SOL    HW2 7486   2.553   2.587   2.899
 2288SOL     OW 7487   3.593   2.824   3.714
 2288SOL    HW1 7488   3.550   2.761   3.648
 2288SOL    HW2 7489   3.533   2.834   3.794
 2289SOL     OW 7490   2.162   1.927   2.485
 2289SOL    HW1 7491   2.144   2.023   2.506
 2289SOL    HW2 7492   2.172   1.875   2.570
 2290SOL     OW 7493   3.476   2.235   2.233
 2290SOL    HW1 7494   3.499   2.165   2.301
 2290SOL    HW2 7495   3.453   2.320   2.280
 2291SOL     OW 7496   2.886   2.622   2.825
 2291SOL    HW1 7497   2.888   2.643   2.923
 2291SOL    HW2 7498   2.854   2.528   2.812
 2292SOL     OW 7499   2.846   3.428   3.576
 2292SOL    HW1 7500   2.828   3.476   3.490
 2292SOL    HW2 7501   2.889   3.340   3.556
 2293SOL     OW 7502   3.720   3.372   3.467
 2293SOL    HW1 7503   3.734   3.395   3.371
 2293SOL    HW2 7504   3.804   3.387   3.518
 2294SOL     OW 7505   2.218   2.775   3.673
 2294SOL    HW1 7506   2.302   2.799   3.721
 2294SOL    HW2 7507   2.239   2.713   3.597
 2295SOL     OW 7508   3.403   2.125   1.992
 2295SOL    HW1 7509   3.352   2.042   2.018
 2295SOL    HW2 7510   3.435   2.171   2.075
 2296SOL     OW 7511   3.159   2.686   1.899
 2296SOL    HW1 7512   3.203   2.596   1.898
 2296SOL    HW2 7513   3.177   2.732   1.812
 2297SOL     OW 7514   2.919   3.210   2.697
 2297SOL    HW1 7515   2.929   3.125   2.646
 2297SOL    HW2 7516   2.992   3.273   2.671
 2298SOL     OW 7517   2.177   2.679   2.803
 2298SOL    HW1 7518   2.274   2.702   2.803
 2298SOL    HW2 7519   2.164   2.589   2.845
 2299SOL     OW 7520   2.189   2.375   2.871
 2299SOL    HW1 7521   2.154   2.284   2.848
 2299SOL    HW2 7522   2.270   2.394   2.815
 2300SOL     OW 7523   2.991   2.227   3.554
 2300SOL    HW1 7524   2.945   2.293   3.613
 2300SOL    HW2 7525   3.081   2.263   3.528
 2301SOL     OW 7526   1.817   3.217   2.096
 2301SOL    HW1 7527   1.738   3.221   2.035
 2301SOL    HW2 7528   1.868   3.133   2.080
 2302SOL     OW 7529   1.953   3.650   2.799
 2302SOL    HW1 7530   1.919   3.565   2.758
 2302SOL    HW2 7531   2.047   3.665   2.770
 2303SOL     OW 7532   2.371   3.443   2.758
 2303SOL    HW1 7533   2.440   3.510   2.785
 2303SOL    HW2 7534   2.413   3.371   2.703
 2304SOL     OW 7535   2.848   2.659   3.092
 2304SOL    HW1 7536   2.906   2.630   3.168
 2304SOL    HW2 7537   2.756   2.620   3.103
 2305SOL     OW 7538   1.901   2.400   2.982
 2305SOL    HW1 7539   1.987   2.402   2.930
 2305SOL    HW2 7540   1.921   2.416   3.079
 2306SOL     OW 7541   2.058   2.388   3.590
 2306SOL    HW1 7542   2.089   2.321   3.523
 2306SOL    HW2 7543   2.014   2.464   3.543
 2307SOL     OW 7544   3.238   2.806   3.517
 2307SOL    HW1 7545   3.259   2.903   3.518
 2307SOL    HW2 7546   3.236   2.773   3.423
 2308SOL     OW 7547   2.676   2.434   2.220
 2308SOL    HW1 7548   2.682   2.354   2.160
 2308SOL    HW2 7549   2.598   2.491   2.191
 2309SOL     OW 7550   3.506   2.464   3.049
 2309SOL    HW1 7551   3.488   2.406   3.129
 2309SOL    HW2 7552   3.596   2.443   3.012
 2310SOL     OW 7553   2.109   3.413   3.592
 2310SOL    HW1 7554   2.083   3.485   3.656
 2310SOL    HW2 7555   2.108   3.325   3.638
 2311SOL     OW 7556   2.552   2.318   3.122
 2311SOL    HW1 7557   2.502   2.236   3.094
 2311SOL    HW2 7558   2.555   2.383   3.047
 2312SOL     OW 7559   2.796   3.541   3.325
 2312SOL    HW1 7560   2.761   3.505   3.238
 2312SOL    HW2 7561   2.791   3.641   3.324
 2313SOL     OW 7562   2.332   2.361   2.054
 2313SOL    HW1 7563   2.391   2.438   2.078
 2313SOL    HW2 7564   2.239   2.394   2.037
 2314SOL     OW 7565   1.999   2.987   3.361
 2314SOL    HW1 7566   2.002   2.944   3.451
 2314SOL    HW2 7567   2.020   2.919   3.291
 2315SOL     OW 7568   3.159   2.724   2.166
 2315SOL    HW1 7569   3.088   2.677   2.218
 2315SOL    HW2 7570   3.144   2.709   2.068
 2316SOL     OW 7571   3.625   3.603   3.008
 2316SOL    HW1 7572   3.692   3.639   2.943
 2316SOL    HW2 7573   3.606   3.507   2.987
 2317SOL     OW 7574   3.107   3.602   2.976
 2317SOL    HW1 7575   3.193   3.618   2.927
 2317SOL    HW2 7576   3.110   3.512   3.019
 2318SOL     OW 7577   2.541   3.531   3.591
 2318SOL    HW1 7578   2.481   3.611   3.591
 2318SOL    HW2 7579   2.604   3.537   3.513
 2319SOL     OW 7580   3.598   2.004   2.388
 2319SOL    HW1 7581   3.649   1.976   2.307
 2319SOL    HW2 7582   3.557   1.924   2.432
 2320SOL     OW 7583   3.262   3.434   2.355
 2320SOL    HW1 7584   3.319   3.459   2.277
 2320SOL    HW2 7585   3.203   3.511   2.380
 2321SOL     OW 7586   1.991   3.648   3.706
 2321SOL    HW1 7587   1.940   3.579   3.757
 2321SOL    HW2 7588   2.053   3.696   3.768
 2322SOL     OW 7589   3.141   2.783   2.528
 2322SOL    HW1 7590   3.215   2.718   2.543
 2322SOL    HW2 7591   3.176   2.863   2.480
 2323SOL     OW 7592   2.682   3.140   3.282
 2323SOL    HW1 7593   2.663   3.179   3.373
 2323SOL    HW2 7594   2.603   3.156   3.223
 2324SOL     OW 7595   2.530   3.478   2.013
 2324SOL    HW1 7596   2.544   3.495   1.916
 2324SOL    HW2 7597   2.502   3.383   2.027
 2325SOL     OW 7598   3.488   3.592   3.250
 2325SOL    HW1 7599   3.540   3.595   3.165
 2325SOL    HW2 7600   3.473   3.685   3.284
 2326SOL     OW 7601   3.708   2.044   2.825
 2326SOL    HW1 7602   3.744   1.954   2.801
 2326SOL    HW2 7603   3.616   2.054   2.789
 2327SOL     OW 7604   2.121   2.179   2.576
 2327SOL    HW1 7605   2.035   2.218   2.545
 2327SOL    HW2 7606   2.114   2.153   2.672
 2328SOL     OW 7607   3.067   3.471   1.892
 2328SOL    HW1 7608   3.046   3.384   1.936
 2328SOL    HW2 7609   3.004   3.486   1.816
 2329SOL     OW 7610   2.688   2.873   3.236
 2329SOL    HW1 7611   2.737   2.857   3.150
 2329SOL    HW2 7612   2.690   2.970   3.258
 2330SOL     OW 7613   2.777   2.766   2.141
 2330SOL    HW1 7614   2.850   2.809   2.089
 2330SOL    HW2 7615   2.815   2.695   2.200
 2331SOL     OW 7616   3.355   3.485   1.901
 2331SOL    HW1 7617   3.255   3.485   1.892
 2331SOL    HW2 7618   3.396   3.492   1.810
 2332SOL     OW 7619   2.222   3.166   3.362
 2332SOL    HW1 7620   2.214   3.247   3.304
 2332SOL    HW2 7621   2.140   3.110   3.351
 2333SOL     OW 7622   3.467   3.142   3.142
 2333SOL    HW1 7623   3.543   3.135   3.206
 2333SOL    HW2 7624   3.409   3.220   3.167
 2334SOL     OW 7625   2.916   2.964   2.571
 2334SOL    HW1 7626   2.840   2.917   2.615
 2334SOL    HW2 7627   2.981   2.897   2.535
 2335SOL     OW 7628   2.466   3.351   2.348
 2335SOL    HW1 7629   2.511   3.296   2.278
 2335SOL    HW2 7630   2.394   3.405   2.306
 2336SOL     OW 7631   3.587   2.255   3.243
 2336SOL    HW1 7632   3.659   2.325   3.242
 2336SOL    HW2 7633   3.614   2.180   3.183
 2337SOL     OW 7634   1.976   2.883   3.603
 2337SOL    HW1 7635   1.894   2.854   3.652
 2337SOL    HW2 7636   2.056   2.838   3.643
 2338SOL     OW 7637   2.538   2.060   3.362
 2338SOL    HW1 7638   2.624   2.036   3.317
 2338SOL    HW2 7639   2.556   2.089   3.456
 2339SOL     OW 7640   3.290   2.722   3.258
 2339SOL    HW1 7641   3.228   2.757   3.188
 2339SOL    HW2 7642   3.385   2.729   3.226
 2340SOL     OW 7643   2.484   2.695   3.294
 2340SOL    HW1 7644   2.540   2.777   3.281
 2340SOL    HW2 7645   2.543   2.615   3.307
 2341SOL     OW 7646   3.351   3.640   2.846
 2341SOL    HW1 7647   3.370   3.691   2.763
 2341SOL    HW2 7648   3.438   3.618   2.892
 2342SOL     OW 7649   2.581   2.424   3.566
 2342SOL    HW1 7650   2.617   2.495   3.627
 2342SOL    HW2 7651   2.613   2.334   3.598
 2343SOL     OW 7652   3.329   3.065   3.502
 2343SOL    HW1 7653   3.322   3.077   3.601
 2343SOL    HW2 7654   3.423   3.079   3.473
 2344SOL     OW 7655   2.243   3.599   3.426
 2344SOL    HW1 7656   2.157   3.648   3.411
 2344SOL    HW2 7657   2.225   3.511   3.470
 2345SOL     OW 7658   3.529   2.743   3.120
 2345SOL    HW1 7659   3.526   2.652   3.079
 2345SOL    HW2 7660   3.525   2.812   3.048
 2346SOL     OW 7661   2.452   2.601   2.530
 2346SOL    HW1 7662   2.495   2.690   2.516
 2346SOL    HW2 7663   2.380   2.588   2.462
 2347SOL     OW 7664   3.618   2.227   3.512
 2347SOL    HW1 7665   3.606   2.241   3.413
 2347SOL    HW2 7666   3.546   2.165   3.545
 2348SOL     OW 7667   3.613   2.797   3.372
 2348SOL    HW1 7668   3.601   2.894   3.393
 2348SOL    HW2 7669   3.591   2.781   3.276
 2349SOL     OW 7670   2.706   3.235   1.886
 2349SOL    HW1 7671   2.697   3.253   1.984
 2349SOL    HW2 7672   2.744   3.316   1.841
 2350SOL     OW 7673   2.526   3.659   2.811
 2350SOL    HW1 7674   2.501   3.752   2.783
 2350SOL    HW2 7675   2.624   3.646   2.800
 2351SOL     OW 7676   2.729   2.827   2.719
 2351SOL    HW1 7677   2.783   2.753   2.759
 2351SOL    HW2 7678   2.692   2.884   2.791
 2352SOL     OW 7679   3.714   3.420   2.711
 2352SOL    HW1 7680   3.642   3.410   2.642
 2352SOL    HW2 7681   3.692   3.361   2.789
 2353SOL     OW 7682   2.083   3.167   3.719
 2353SOL    HW1 7683   2.025   3.096   3.680
 2353SOL    HW2 7684   2.063   3.177   3.817
 2354SOL     OW 7685   1.936   3.099   2.524
 2354SOL    HW1 7686   1.930   3.035   2.601
 2354SOL    HW2 7687   2.012   3.071   2.465
 2355SOL     OW 7688   2.539   3.267   3.486
 2355SOL    HW1 7689   2.461   3.212   3.518
 2355SOL    HW2 7690   2.536   3.357   3.528
 2356SOL     OW 7691   3.670   2.049   3.095
 2356SOL    HW1 7692   3.680   1.952   3.118
 2356SOL    HW2 7693   3.688   2.062   2.997
 2357SOL     OW 7694   2.296   2.290   2.388
 2357SOL    HW1 7695   2.330   2.220   2.325
 2357SOL    HW2 7696   2.241   2.246   2.460
 2358SOL     OW 7697   3.569   3.346   2.956
 2358SOL    HW1 7698   3.482   3.321   2.914
 2358SOL    HW2 7699   3.594   3.278   3.024
 2359SOL     OW 7700   2.191   2.417   3.150
 2359SOL    HW1 7701   2.244   2.361   3.214
 2359SOL    HW2 7702   2.212   2.390   3.056
 2360SOL     OW 7703   2.680   3.450   2.548
 2360SOL    HW1 7704   2.689   3.485   2.455
 2360SOL    HW2 7705   2.607   3.383   2.552
 2361SOL     OW 7706   2.627   3.197   2.171
 2361SOL    HW1 7707   2.601   3.101   2.182
 2361SOL    HW2 7708   2.711   3.214   2.223
 2362SOL     OW 7709   2.486   3.422   3.146
 2362SOL    HW1 7710   2.485   3.507   3.200
 2362SOL    HW2 7711   2.576   3.411   3.104
 2363SOL     OW 7712   3.263   1.881   2.022
 2363SOL    HW1 7713   3.273   1.829   1.938
 2363SOL    HW2 7714   3.182   1.851   2.071
 2364SOL     OW 7715   3.174   2.330   2.553
 2364SOL    HW1 7716   3.109   2.405   2.551
 2364SOL    HW2 7717   3.170   2.285   2.643
 2365SOL     OW 7718   3.450   2.078   2.741
 2365SOL    HW1 7719   3.356   2.080   2.773
 2365SOL    HW2 7720   3.466   2.156   2.680
 2366SOL     OW 7721   2.743   3.521   2.202
 2366SOL    HW1 7722   2.670   3.500   2.138
 2366SOL    HW2 7723   2.716   3.597   2.261
 2367SOL     OW 7724   2.093   2.482   3.847
 2367SOL    HW1 7725   2.001   2.486   3.886
 2367SOL    HW2 7726   2.087   2.457   3.750
 2368SOL     OW 7727   2.090   2.139   4.718
 2368SOL    HW1 7728   2.121   2.094   4.802
 2368SOL    HW2 7729   1.995   2.112   4.700
 2369SOL     OW 7730   1.865   2.246   4.362
 2369SOL    HW1 7731   1.781   2.277   4.405
 2369SOL    HW2 7732   1.849   2.160   4.314
 2370SOL     OW 7733   2.414   3.123   4.897
 2370SOL    HW1 7734   2.334   3.160   4.850
 2370SOL    HW2 7735   2.479   3.196   4.915
 2371SOL     OW 7736   3.421   3.372   4.429
 2371SOL    HW1 7737   3.377   3.357   4.518
 2371SOL    HW2 7738   3.351   3.385   4.359
 2372SOL     OW 7739   2.992   2.568   4.423
 2372SOL    HW1 7740   3.047   2.650   4.407
 2372SOL    HW2 7741   2.944   2.577   4.510
 2373SOL     OW 7742   3.622   2.473   3.952
 2373SOL    HW1 7743   3.605   2.463   3.854
 2373SOL    HW2 7744   3.597   2.388   3.999
 2374SOL     OW 7745   2.620   3.003   4.762
 2374SOL    HW1 7746   2.542   3.031   4.819
 2374SOL    HW2 7747   2.660   3.084   4.720
 2375SOL     OW 7748   2.547   2.869   4.377
 2375SOL    HW1 7749   2.618   2.851   4.444
 2375SOL    HW2 7750   2.474   2.923   4.419
 2376SOL     OW 7751   2.211   3.277   4.782
 2376SOL    HW1 7752   2.120   3.271   4.742
 2376SOL    HW2 7753   2.265   3.345   4.733
 2377SOL     OW 7754   3.475   2.313   4.464
 2377SOL    HW1 7755   3.390   2.329   4.414
 2377SOL    HW2 7756   3.493   2.390   4.525
 2378SOL     OW 7757   2.080   3.583   4.189
 2378SOL    HW1 7758   2.106   3.658   4.251
 2378SOL    HW2 7759   2.157   3.563   4.128
 2379SOL     OW 7760   2.115   2.952   4.625
 2379SOL    HW1 7761   2.128   2.856   4.649
 2379SOL    HW2 7762   2.030   2.986   4.667
 2380SOL     OW 7763   2.458   2.843   3.852
 2380SOL    HW1 7764   2.501   2.898   3.781
 2380SOL    HW2 7765   2.494   2.870   3.941
 2381SOL     OW 7766   1.977   2.514   4.286
 2381SOL    HW1 7767   1.944   2.421   4.303
 2381SOL    HW2 7768   1.969   2.567   4.370
 2382SOL     OW 7769   3.703   3.634   4.061
 2382SOL    HW1 7770   3.764   3.594   4.129
 2382SOL    HW2 7771   3.747   3.713   4.018
 2383SOL     OW 7772   1.887   3.447   3.854
 2383SOL    HW1 7773   1.827   3.367   3.848
 2383SOL    HW2 7774   1.866   3.499   3.937
 2384SOL     OW 7775   3.553   2.784   4.364
 2384SOL    HW1 7776   3.638   2.735   4.345
 2384SOL    HW2 7777   3.525   2.836   4.284
 2385SOL     OW 7778   3.508   2.965   4.155
 2385SOL    HW1 7779   3.600   2.968   4.117
 2385SOL    HW2 7780   3.500   3.031   4.230
 2386SOL     OW 7781   2.471   3.247   4.456
 2386SOL    HW1 7782   2.424   3.160   4.469
 2386SOL    HW2 7783   2.458   3.279   4.362
 2387SOL     OW 7784   2.671   1.864   4.232
 2387SOL    HW1 7785   2.712   1.953   4.214
 2387SOL    HW2 7786   2.572   1.873   4.242
 2388SOL     OW 7787   3.398   2.856   3.924
 2388SOL    HW1 7788   3.325   2.791   3.945
 2388SOL    HW2 7789   3.435   2.894   4.009
 2389SOL     OW 7790   3.336   3.276   4.680
 2389SOL    HW1 7791   3.256   3.301   4.735
 2389SOL    HW2 7792   3.324   3.183   4.645
 2390SOL     OW 7793   3.519   3.596   4.303
 2390SOL    HW1 7794   3.492   3.574   4.210
 2390SOL    HW2 7795   3.494   3.520   4.364
 2391SOL     OW 7796   2.459   2.588   3.993
 2391SOL    HW1 7797   2.470   2.665   3.931
 2391SOL    HW2 7798   2.384   2.607   4.056
 2392SOL     OW 7799   3.140   2.209   4.659
 2392SOL    HW1 7800   3.045   2.179   4.663
 2392SOL    HW2 7801   3.196   2.154   4.721
 2393SOL     OW 7802   3.448   3.527   4.030
 2393SOL    HW1 7803   3.539   3.568   4.030
 2393SOL    HW2 7804   3.417   3.512   3.936
 2394SOL     OW 7805   2.909   2.559   4.153
 2394SOL    HW1 7806   2.927   2.556   4.251
 2394SOL    HW2 7807   2.823   2.512   4.133
 2395SOL     OW 7808   1.951   2.682   4.503
 2395SOL    HW1 7809   2.038   2.673   4.551
 2395SOL    HW2 7810   1.901   2.761   4.538
 2396SOL     OW 7811   2.747   2.217   3.920
 2396SOL    HW1 7812   2.789   2.281   3.856
 2396SOL    HW2 7813   2.742   2.126   3.879
 2397SOL     OW 7814   2.410   2.044   4.622
 2397SOL    HW1 7815   2.400   2.079   4.715
 2397SOL    HW2 7816   2.417   2.120   4.558
 2398SOL     OW 7817   2.829   3.305   4.195
 2398SOL    HW1 7818   2.816   3.391   4.145
 2398SOL    HW2 7819   2.874   3.324   4.282
 2399SOL     OW 7820   2.218   3.670   4.580
 2399SOL    HW1 7821   2.259   3.579   4.593
 2399SOL    HW2 7822   2.287   3.740   4.600
 2400SOL     OW 7823   3.660   2.918   4.593
 2400SOL    HW1 7824   3.608   2.900   4.509
 2400SOL    HW2 7825   3.597   2.922   4.670
 2401SOL     OW 7826   2.215   2.773   3.980
 2401SOL    HW1 7827   2.289   2.814   3.927
 2401SOL    HW2 7828   2.165   2.708   3.923
 2402SOL     OW 7829   3.337   2.610   4.453
 2402SOL    HW1 7830   3.327   2.553   4.535
 2402SOL    HW2 7831   3.423   2.661   4.459
 2403SOL     OW 7832   2.983   3.641   3.954
 2403SOL    HW1 7833   2.906   3.600   4.003
 2403SOL    HW2 7834   3.008   3.583   3.876
 2404SOL     OW 7835   3.488   3.241   3.811
 2404SOL    HW1 7836   3.451   3.333   3.796
 2404SOL    HW2 7837   3.417   3.173   3.795
 2405SOL     OW 7838   2.339   3.589   4.053
 2405SOL    HW1 7839   2.371   3.660   4.116
 2405SOL    HW2 7840   2.409   3.573   3.983
 2406SOL     OW 7841   2.146   3.641   4.934
 2406SOL    HW1 7842   2.122   3.591   5.017
 2406SOL    HW2 7843   2.086   3.612   4.859
 2407SOL     OW 7844   2.807   3.555   4.627
 2407SOL    HW1 7845   2.889   3.498   4.638
 2407SOL    HW2 7846   2.748   3.514   4.557
 2408SOL     OW 7847   2.256   2.550   4.212
 2408SOL    HW1 7848   2.279   2.453   4.220
 2408SOL    HW2 7849   2.157   2.561   4.220
 2409SOL     OW 7850   2.502   1.986   3.826
 2409SOL    HW1 7851   2.572   1.917   3.844
 2409SOL    HW2 7852   2.442   1.955   3.753
 2410SOL     OW 7853   2.669   3.251   4.653
 2410SOL    HW1 7854   2.762   3.246   4.618
 2410SOL    HW2 7855   2.604   3.249   4.577
 2411SOL     OW 7856   2.791   2.373   4.626
 2411SOL    HW1 7857   2.766   2.362   4.530
 2411SOL    HW2 7858   2.822   2.285   4.662
 2412SOL     OW 7859   2.405   1.925   4.227
 2412SOL    HW1 7860   2.321   1.924   4.281
 2412SOL    HW2 7861   2.408   2.008   4.171
 2413SOL     OW 7862   3.288   3.057   3.774
 2413SOL    HW1 7863   3.337   2.980   3.815
 2413SOL    HW2 7864   3.196   3.062   3.813
 2414SOL     OW 7865   2.778   2.110   4.193
 2414SOL    HW1 7866   2.748   2.156   4.109
 2414SOL    HW2 7867   2.878   2.103   4.193
 2415SOL     OW 7868   3.086   3.440   4.523
 2415SOL    HW1 7869   3.103   3.503   4.447
 2415SOL    HW2 7870   3.160   3.448   4.590
 2416SOL     OW 7871   2.322   3.011   4.456
 2416SOL    HW1 7872   2.253   2.996   4.526
 2416SOL    HW2 7873   2.289   2.976   4.369
 2417SOL     OW 7874   3.126   3.656   4.333
 2417SOL    HW1 7875   3.181   3.710   4.269
 2417SOL    HW2 7876   3.062   3.715   4.381
 2418SOL     OW 7877   2.884   2.407   3.748
 2418SOL    HW1 7878   2.838   2.492   3.721
 2418SOL    HW2 7879   2.954   2.427   3.816
 2419SOL     OW 7880   2.730   2.326   4.364
 2419SOL    HW1 7881   2.678   2.387   4.305
 2419SOL    HW2 7882   2.744   2.238   4.317
 2420SOL     OW 7883   2.876   1.906   4.469
 2420SOL    HW1 7884   2.810   1.902   4.394
 2420SOL    HW2 7885   2.858   1.831   4.533
 2421SOL     OW 7886   3.302   3.024   4.586
 2421SOL    HW1 7887   3.231   2.955   4.575
 2421SOL    HW2 7888   3.347   3.040   4.498
 2422SOL     OW 7889   3.330   2.466   4.703
 2422SOL    HW1 7890   3.274   2.383   4.701
 2422SOL    HW2 7891   3.393   2.463   4.780
 2423SOL     OW 7892   3.709   2.684   4.113
 2423SOL    HW1 7893   3.772   2.629   4.168
 2423SOL    HW2 7894   3.679   2.632   4.033
 2424SOL     OW 7895   3.520   3.124   4.378
 2424SOL    HW1 7896   3.620   3.121   4.382
 2424SOL    HW2 7897   3.490   3.219   4.392
 2425SOL     OW 7898   3.254   2.437   3.793
 2425SOL    HW1 7899   3.192   2.421   3.869
 2425SOL    HW2 7900   3.346   2.406   3.817
 2426SOL     OW 7901   2.408   2.130   4.045
 2426SOL    HW1 7902   2.438   2.071   3.970
 2426SOL    HW2 7903   2.380   2.219   4.007
 2427SOL     OW 7904   3.491   2.963   4.800
 2427SOL    HW1 7905   3.492   3.031   4.873
 2427SOL    HW2 7906   3.406   2.972   4.747
 2428SOL     OW 7907   2.575   2.924   4.096
 2428SOL    HW1 7908   2.557   2.908   4.193
 2428SOL    HW2 7909   2.652   2.867   4.067
 2429SOL     OW 7910   2.294   2.668  -0.028
 2429SOL    HW1 7911   2.348   2.714   0.042
 2429SOL    HW2 7912   2.231   2.603   0.015
 2430SOL     OW 7913   2.413   2.402   4.590
 2430SOL    HW1 7914   2.427   2.459   4.509
 2430SOL    HW2 7915   2.478   2.429   4.661
 2431SOL     OW 7916   3.126   3.311   4.846
 2431SOL    HW1 7917   3.194   3.321   4.919
 2431SOL    HW2 7918   3.077   3.224   4.857
 2432SOL     OW 7919   3.443   2.486   4.198
 2432SOL    HW1 7920   3.397   2.543   4.266
 2432SOL    HW2 7921   3.496   2.545   4.137
 2433SOL     OW 7922   2.445   2.734   4.752
 2433SOL    HW1 7923   2.475   2.829   4.753
 2433SOL    HW2 7924   2.386   2.717   4.831
 2434SOL     OW 7925   3.216   2.716   4.767
 2434SOL    HW1 7926   3.134   2.720   4.710
 2434SOL    HW2 7927   3.261   2.628   4.753
 2435SOL     OW 7928   3.066   2.404   3.989
 2435SOL    HW1 7929   3.092   2.323   4.043
 2435SOL    HW2 7930   3.016   2.468   4.048
 2436SOL     OW 7931   2.586   2.493   4.779
 2436SOL    HW1 7932   2.665   2.471   4.722
 2436SOL    HW2 7933   2.555   2.586   4.759
 2437SOL     OW 7934   2.162   1.921   4.357
 2437SOL    HW1 7935   2.144   2.016   4.379
 2437SOL    HW2 7936   2.169   1.867   4.441
 2438SOL     OW 7937   3.475   2.234   4.097
 2438SOL    HW1 7938   3.502   2.164   4.163
 2438SOL    HW2 7939   3.454   2.319   4.145
 2439SOL     OW 7940   2.886   2.618   4.684
 2439SOL    HW1 7941   2.885   2.636   4.782
 2439SOL    HW2 7942   2.857   2.524   4.666
 2440SOL     OW 7943   3.395   2.136   3.856
 2440SOL    HW1 7944   3.338   2.059   3.883
 2440SOL    HW2 7945   3.433   2.181   3.937
 2441SOL     OW 7946   3.163   2.693   3.757
 2441SOL    HW1 7947   3.200   2.601   3.762
 2441SOL    HW2 7948   3.189   2.736   3.670
 2442SOL     OW 7949   2.919   3.210   4.564
 2442SOL    HW1 7950   2.927   3.125   4.512
 2442SOL    HW2 7951   2.992   3.273   4.536
 2443SOL     OW 7952   2.177   2.675   4.665
 2443SOL    HW1 7953   2.274   2.699   4.664
 2443SOL    HW2 7954   2.165   2.583   4.702
 2444SOL     OW 7955   2.178   2.392   4.726
 2444SOL    HW1 7956   2.147   2.297   4.720
 2444SOL    HW2 7957   2.264   2.402   4.676
 2445SOL     OW 7958   1.957   3.654   4.660
 2445SOL    HW1 7959   1.919   3.571   4.619
 2445SOL    HW2 7960   2.052   3.665   4.631
 2446SOL     OW 7961   2.366   3.440   4.631
 2446SOL    HW1 7962   2.436   3.507   4.656
 2446SOL    HW2 7963   2.406   3.370   4.572
 2447SOL     OW 7964   2.853   2.641   4.952
 2447SOL    HW1 7965   2.923   2.671   5.017
 2447SOL    HW2 7966   2.762   2.661   4.988
 2448SOL     OW 7967   1.917   2.398   4.853
 2448SOL    HW1 7968   1.989   2.390   4.784
 2448SOL    HW2 7969   1.935   2.478   4.911
 2449SOL     OW 7970   2.678   2.436   4.079
 2449SOL    HW1 7971   2.684   2.356   4.019
 2449SOL    HW2 7972   2.599   2.492   4.052
 2450SOL     OW 7973   3.514   2.463   4.901
 2450SOL    HW1 7974   3.507   2.390   4.969
 2450SOL    HW2 7975   3.601   2.454   4.852
 2451SOL     OW 7976   2.559   2.327   4.992
 2451SOL    HW1 7977   2.487   2.260   4.971
 2451SOL    HW2 7978   2.568   2.392   4.917
 2452SOL     OW 7979   2.330   2.359   3.918
 2452SOL    HW1 7980   2.391   2.435   3.940
 2452SOL    HW2 7981   2.238   2.393   3.900
 2453SOL     OW 7982   3.165   2.715   4.032
 2453SOL    HW1 7983   3.085   2.682   4.082
 2453SOL    HW2 7984   3.150   2.705   3.934
 2454SOL     OW 7985   3.615   3.616   4.839
 2454SOL    HW1 7986   3.692   3.640   4.780
 2454SOL    HW2 7987   3.601   3.517   4.836
 2455SOL     OW 7988   3.594   2.005   4.246
 2455SOL    HW1 7989   3.656   1.973   4.174
 2455SOL    HW2 7990   3.554   1.927   4.293
 2456SOL     OW 7991   3.261   3.436   4.218
 2456SOL    HW1 7992   3.318   3.458   4.140
 2456SOL    HW2 7993   3.202   3.514   4.240
 2457SOL     OW 7994   3.150   2.792   4.386
 2457SOL    HW1 7995   3.219   2.723   4.408
 2457SOL    HW2 7996   3.180   2.845   4.307
 2458SOL     OW 7997   2.535   3.477   3.875
 2458SOL    HW1 7998   2.544   3.497   3.778
 2458SOL    HW2 7999   2.500   3.383   3.887
 2459SOL     OW 8000   3.511   3.635   0.084
 2459SOL    HW1 8001   3.563   3.632  -0.001
 2459SOL    HW2 8002   3.510   3.729   0.119
 2460SOL     OW 8003   3.709   2.042   4.690
 2460SOL    HW1 8004   3.747   1.953   4.666
 2460SOL    HW2 8005   3.618   2.052   4.650
 2461SOL     OW 8006   2.123   2.176   4.442
 2461SOL    HW1 8007   2.037   2.217   4.413
 2461SOL    HW2 8008   2.123   2.166   4.541
 2462SOL     OW 8009   3.067   3.471   3.754
 2462SOL    HW1 8010   3.047   3.383   3.798
 2462SOL    HW2 8011   3.003   3.486   3.679
 2463SOL     OW 8012   2.710   2.886   0.058
 2463SOL    HW1 8013   2.734   2.903  -0.037
 2463SOL    HW2 8014   2.705   2.974   0.107
 2464SOL     OW 8015   2.775   2.768   4.010
 2464SOL    HW1 8016   2.834   2.795   3.933
 2464SOL    HW2 8017   2.820   2.695   4.061
 2465SOL     OW 8018   3.355   3.486   3.763
 2465SOL    HW1 8019   3.256   3.483   3.754
 2465SOL    HW2 8020   3.396   3.493   3.672
 2466SOL     OW 8021   2.917   2.966   4.437
 2466SOL    HW1 8022   2.840   2.919   4.479
 2466SOL    HW2 8023   2.978   2.899   4.394
 2467SOL     OW 8024   2.885   2.101   4.675
 2467SOL    HW1 8025   2.881   2.049   4.590
 2467SOL    HW2 8026   2.857   2.042   4.751
 2468SOL     OW 8027   2.457   3.348   4.206
 2468SOL    HW1 8028   2.509   3.295   4.139
 2468SOL    HW2 8029   2.402   3.416   4.159
 2469SOL     OW 8030   3.591   2.264   0.069
 2469SOL    HW1 8031   3.668   2.299   0.122
 2469SOL    HW2 8032   3.616   2.177   0.027
 2470SOL     OW 8033   1.943   2.197   3.741
 2470SOL    HW1 8034   1.846   2.185   3.719
 2470SOL    HW2 8035   1.977   2.279   3.693
 2471SOL     OW 8036   3.362   3.636   4.698
 2471SOL    HW1 8037   3.375   3.695   4.618
 2471SOL    HW2 8038   3.448   3.626   4.746
 2472SOL     OW 8039   3.553   2.738   4.959
 2472SOL    HW1 8040   3.516   2.650   4.930
 2472SOL    HW2 8041   3.521   2.809   4.896
 2473SOL     OW 8042   2.454   2.601   4.392
 2473SOL    HW1 8043   2.495   2.691   4.377
 2473SOL    HW2 8044   2.381   2.587   4.325
 2474SOL     OW 8045   3.615   2.786   0.212
 2474SOL    HW1 8046   3.663   2.874   0.212
 2474SOL    HW2 8047   3.579   2.768   0.121
 2475SOL     OW 8048   2.713   3.233   3.749
 2475SOL    HW1 8049   2.695   3.251   3.846
 2475SOL    HW2 8050   2.743   3.318   3.704
 2476SOL     OW 8051   2.528   3.659   4.680
 2476SOL    HW1 8052   2.499   3.748   4.646
 2476SOL    HW2 8053   2.624   3.644   4.656
 2477SOL     OW 8054   2.730   2.829   4.580
 2477SOL    HW1 8055   2.779   2.751   4.619
 2477SOL    HW2 8056   2.691   2.884   4.653
 2478SOL     OW 8057   2.925   2.824   3.793
 2478SOL    HW1 8058   2.904   2.888   3.719
 2478SOL    HW2 8059   3.012   2.778   3.774
 2479SOL     OW 8060   3.714   3.424   4.576
 2479SOL    HW1 8061   3.649   3.409   4.502
 2479SOL    HW2 8062   3.715   3.343   4.635
 2480SOL     OW 8063   1.927   3.094   4.394
 2480SOL    HW1 8064   1.932   3.031   4.471
 2480SOL    HW2 8065   2.009   3.085   4.338
 2481SOL     OW 8066   3.681   2.039   4.960
 2481SOL    HW1 8067   3.699   1.944   4.985
 2481SOL    HW2 8068   3.692   2.051   4.861
 2482SOL     OW 8069   2.302   2.290   4.256
 2482SOL    HW1 8070   2.333   2.222   4.190
 2482SOL    HW2 8071   2.245   2.247   4.326
 2483SOL     OW 8072   3.555   3.357   4.834
 2483SOL    HW1 8073   3.480   3.322   4.777
 2483SOL    HW2 8074   3.582   3.287   4.900
 2484SOL     OW 8075   2.672   3.457   4.413
 2484SOL    HW1 8076   2.691   3.475   4.317
 2484SOL    HW2 8077   2.602   3.386   4.421
 2485SOL     OW 8078   3.298   2.087   4.841
 2485SOL    HW1 8079   3.359   2.017   4.877
 2485SOL    HW2 8080   3.260   2.140   4.917
 2486SOL     OW 8081   2.823   1.871   4.838
 2486SOL    HW1 8082   2.798   1.789   4.786
 2486SOL    HW2 8083   2.911   1.857   4.882
 2487SOL     OW 8084   2.625   3.197   4.034
 2487SOL    HW1 8085   2.600   3.101   4.043
 2487SOL    HW2 8086   2.708   3.215   4.087
 2488SOL     OW 8087   3.174   2.332   4.417
 2488SOL    HW1 8088   3.107   2.405   4.412
 2488SOL    HW2 8089   3.161   2.280   4.502
 2489SOL     OW 8090   3.452   2.070   4.601
 2489SOL    HW1 8091   3.384   2.082   4.674
 2489SOL    HW2 8092   3.454   2.151   4.543
 2490SOL     OW 8093   2.743   3.526   4.064
 2490SOL    HW1 8094   2.671   3.504   3.999
 2490SOL    HW2 8095   2.712   3.602   4.123
 2491SOL     OW 8096   2.078   4.397   0.090
 2491SOL    HW1 8097   2.006   4.385   0.159
 2491SOL    HW2 8098   2.105   4.307   0.056
 2492SOL     OW 8099   1.864   4.104   0.637
 2492SOL    HW1 8100   1.778   4.134   0.679
 2492SOL    HW2 8101   1.851   4.017   0.590
 2493SOL     OW 8102   3.000   4.420   0.712
 2493SOL    HW1 8103   3.050   4.501   0.684
 2493SOL    HW2 8104   2.939   4.443   0.788
 2494SOL     OW 8105   3.639   4.347   0.244
 2494SOL    HW1 8106   3.592   4.359   0.156
 2494SOL    HW2 8107   3.596   4.272   0.294
 2495SOL     OW 8108   2.627   4.875   1.031
 2495SOL    HW1 8109   2.548   4.904   1.085
 2495SOL    HW2 8110   2.653   4.948   0.968
 2496SOL     OW 8111   2.722   4.504   1.817
 2496SOL    HW1 8112   2.713   4.571   1.890
 2496SOL    HW2 8113   2.751   4.550   1.733
 2497SOL     OW 8114   2.542   4.727   0.655
 2497SOL    HW1 8115   2.613   4.715   0.724
 2497SOL    HW2 8116   2.473   4.791   0.690
 2498SOL     OW 8117   2.568   4.886   1.801
 2498SOL    HW1 8118   2.623   4.962   1.835
 2498SOL    HW2 8119   2.482   4.920   1.765
 2499SOL     OW 8120   2.309   4.116   1.480
 2499SOL    HW1 8121   2.388   4.056   1.492
 2499SOL    HW2 8122   2.225   4.065   1.498
 2500SOL     OW 8123   3.473   4.175   0.746
 2500SOL    HW1 8124   3.399   4.199   0.684
 2500SOL    HW2 8125   3.515   4.258   0.782
 2501SOL     OW 8126   2.435   4.701   0.145
 2501SOL    HW1 8127   2.497   4.738   0.076
 2501SOL    HW2 8128   2.467   4.729   0.236
 2502SOL     OW 8129   3.460   3.844   1.475
 2502SOL    HW1 8130   3.453   3.918   1.408
 2502SOL    HW2 8131   3.452   3.882   1.567
 2503SOL     OW 8132   1.985   4.356   0.574
 2503SOL    HW1 8133   1.943   4.267   0.594
 2503SOL    HW2 8134   1.972   4.417   0.652
 2504SOL     OW 8135   3.559   4.644   0.640
 2504SOL    HW1 8136   3.646   4.603   0.615
 2504SOL    HW2 8137   3.519   4.690   0.560
 2505SOL     OW 8138   3.501   4.841   0.454
 2505SOL    HW1 8139   3.565   4.811   0.383
 2505SOL    HW2 8140   3.552   4.887   0.527
 2506SOL     OW 8141   1.982   4.463   1.583
 2506SOL    HW1 8142   2.080   4.472   1.601
 2506SOL    HW2 8143   1.936   4.550   1.602
 2507SOL     OW 8144   3.161   4.950   1.425
 2507SOL    HW1 8145   3.199   4.876   1.370
 2507SOL    HW2 8146   3.209   4.955   1.512
 2508SOL     OW 8147   2.673   3.727   0.503
 2508SOL    HW1 8148   2.720   3.813   0.487
 2508SOL    HW2 8149   2.575   3.743   0.515
 2509SOL     OW 8150   2.055   4.698   1.268
 2509SOL    HW1 8151   2.142   4.650   1.256
 2509SOL    HW2 8152   1.980   4.643   1.231
 2510SOL     OW 8153   3.327   4.769   0.211
 2510SOL    HW1 8154   3.277   4.685   0.233
 2510SOL    HW2 8155   3.425   4.754   0.226
 2511SOL     OW 8156   2.463   4.454   0.273
 2511SOL    HW1 8157   2.479   4.541   0.225
 2511SOL    HW2 8158   2.395   4.467   0.344
 2512SOL     OW 8159   2.648   4.343   1.453
 2512SOL    HW1 8160   2.626   4.321   1.548
 2512SOL    HW2 8161   2.605   4.276   1.392
 2513SOL     OW 8162   3.257   4.190   1.680
 2513SOL    HW1 8163   3.272   4.247   1.761
 2513SOL    HW2 8164   3.322   4.114   1.681
 2514SOL     OW 8165   2.822   4.611   1.578
 2514SOL    HW1 8166   2.876   4.535   1.543
 2514SOL    HW2 8167   2.767   4.649   1.503
 2515SOL     OW 8168   2.828   4.134   1.263
 2515SOL    HW1 8169   2.736   4.158   1.292
 2515SOL    HW2 8170   2.823   4.070   1.186
 2516SOL     OW 8171   2.905   4.429   0.431
 2516SOL    HW1 8172   2.930   4.408   0.526
 2516SOL    HW2 8173   2.828   4.373   0.404
 2517SOL     OW 8174   1.952   4.539   0.782
 2517SOL    HW1 8175   2.041   4.537   0.828
 2517SOL    HW2 8176   1.902   4.621   0.810
 2518SOL     OW 8177   2.746   4.071   0.211
 2518SOL    HW1 8178   2.765   4.137   0.138
 2518SOL    HW2 8179   2.739   3.980   0.172
 2519SOL     OW 8180   3.569   4.301   1.826
 2519SOL    HW1 8181   3.535   4.380   1.773
 2519SOL    HW2 8182   3.607   4.233   1.763
 2520SOL     OW 8183   3.239   4.861   0.548
 2520SOL    HW1 8184   3.317   4.844   0.489
 2520SOL    HW2 8185   3.187   4.939   0.513
 2521SOL     OW 8186   2.404   3.910   0.895
 2521SOL    HW1 8187   2.410   3.934   0.992
 2521SOL    HW2 8188   2.415   3.993   0.840
 2522SOL     OW 8189   3.671   4.785   0.856
 2522SOL    HW1 8190   3.608   4.751   0.786
 2522SOL    HW2 8191   3.621   4.797   0.942
 2523SOL     OW 8192   2.199   4.654   0.270
 2523SOL    HW1 8193   2.278   4.682   0.216
 2523SOL    HW2 8194   2.147   4.584   0.220
 2524SOL     OW 8195   3.346   4.466   0.715
 2524SOL    HW1 8196   3.324   4.417   0.799
 2524SOL    HW2 8197   3.422   4.529   0.731
 2525SOL     OW 8198   2.062   4.017   1.524
 2525SOL    HW1 8199   1.982   4.074   1.504
 2525SOL    HW2 8200   2.032   3.932   1.567
 2526SOL     OW 8201   3.267   3.831   0.433
 2526SOL    HW1 8202   3.250   3.797   0.341
 2526SOL    HW2 8203   3.365   3.843   0.448
 2527SOL     OW 8204   2.255   4.411   0.474
 2527SOL    HW1 8205   2.279   4.315   0.489
 2527SOL    HW2 8206   2.160   4.427   0.503
 2528SOL     OW 8207   3.401   3.950   1.727
 2528SOL    HW1 8208   3.411   3.971   1.824
 2528SOL    HW2 8209   3.330   3.880   1.716
 2529SOL     OW 8210   2.476   3.832   0.115
 2529SOL    HW1 8211   2.574   3.822   0.127
 2529SOL    HW2 8212   2.451   3.805   0.021
 2530SOL     OW 8213   2.631   4.000   1.754
 2530SOL    HW1 8214   2.708   3.936   1.754
 2530SOL    HW2 8215   2.575   3.985   1.835
 2531SOL     OW 8216   3.201   4.317   1.437
 2531SOL    HW1 8217   3.235   4.274   1.520
 2531SOL    HW2 8218   3.242   4.407   1.426
 2532SOL     OW 8219   2.407   3.785   0.503
 2532SOL    HW1 8220   2.323   3.785   0.558
 2532SOL    HW2 8221   2.408   3.866   0.445
 2533SOL     OW 8222   2.159   3.777   0.219
 2533SOL    HW1 8223   2.210   3.829   0.150
 2533SOL    HW2 8224   2.216   3.702   0.253
 2534SOL     OW 8225   2.803   3.966   0.463
 2534SOL    HW1 8226   2.769   4.011   0.380
 2534SOL    HW2 8227   2.902   3.982   0.471
 2535SOL     OW 8228   2.942   4.401   1.457
 2535SOL    HW1 8229   2.869   4.334   1.458
 2535SOL    HW2 8230   3.030   4.355   1.448
 2536SOL     OW 8231   2.309   4.857   0.749
 2536SOL    HW1 8232   2.244   4.814   0.811
 2536SOL    HW2 8233   2.284   4.836   0.654
 2537SOL     OW 8234   2.854   4.269   0.047
 2537SOL    HW1 8235   2.846   4.344  -0.019
 2537SOL    HW2 8236   2.937   4.281   0.101
 2538SOL     OW 8237   1.934   4.278   1.388
 2538SOL    HW1 8238   2.026   4.277   1.348
 2538SOL    HW2 8239   1.931   4.349   1.459
 2539SOL     OW 8240   2.419   3.947   1.169
 2539SOL    HW1 8241   2.470   3.865   1.197
 2539SOL    HW2 8242   2.328   3.945   1.210
 2540SOL     OW 8243   2.735   4.184   0.640
 2540SOL    HW1 8244   2.685   4.244   0.577
 2540SOL    HW2 8245   2.758   4.099   0.593
 2541SOL     OW 8246   2.900   3.752   0.731
 2541SOL    HW1 8247   2.824   3.778   0.672
 2541SOL    HW2 8248   2.867   3.697   0.807
 2542SOL     OW 8249   3.314   4.870   0.863
 2542SOL    HW1 8250   3.239   4.804   0.858
 2542SOL    HW2 8251   3.317   4.924   0.779
 2543SOL     OW 8252   3.737   4.551   0.423
 2543SOL    HW1 8253   3.784   4.474   0.467
 2543SOL    HW2 8254   3.694   4.519   0.338
 2544SOL     OW 8255   2.397   3.987   0.323
 2544SOL    HW1 8256   2.429   3.926   0.251
 2544SOL    HW2 8257   2.383   4.079   0.286
 2545SOL     OW 8258   3.621   4.927   1.578
 2545SOL    HW1 8259   3.718   4.906   1.571
 2545SOL    HW2 8260   3.608   5.026   1.589
 2546SOL     OW 8261   3.496   4.811   1.067
 2546SOL    HW1 8262   3.495   4.878   1.142
 2546SOL    HW2 8263   3.423   4.833   1.002
 2547SOL     OW 8264   2.779   3.824   1.401
 2547SOL    HW1 8265   2.800   3.791   1.309
 2547SOL    HW2 8266   2.860   3.867   1.441
 2548SOL     OW 8267   2.840   4.837   1.726
 2548SOL    HW1 8268   2.742   4.848   1.741
 2548SOL    HW2 8269   2.856   4.759   1.665
 2549SOL     OW 8270   2.559   4.758   0.375
 2549SOL    HW1 8271   2.545   4.761   0.475
 2549SOL    HW2 8272   2.647   4.714   0.355
 2550SOL     OW 8273   2.281   4.540   1.252
 2550SOL    HW1 8274   2.353   4.558   1.319
 2550SOL    HW2 8275   2.239   4.451   1.273
 2551SOL     OW 8276   2.229   4.806   0.498
 2551SOL    HW1 8277   2.235   4.895   0.454
 2551SOL    HW2 8278   2.219   4.735   0.428
 2552SOL     OW 8279   2.412   4.258   0.864
 2552SOL    HW1 8280   2.425   4.318   0.785
 2552SOL    HW2 8281   2.466   4.292   0.941
 2553SOL     OW 8282   3.446   4.350   0.475
 2553SOL    HW1 8283   3.395   4.401   0.545
 2553SOL    HW2 8284   3.494   4.415   0.416
 2554SOL     OW 8285   2.274   4.468   1.600
 2554SOL    HW1 8286   2.340   4.516   1.542
 2554SOL    HW2 8287   2.312   4.380   1.628
 2555SOL     OW 8288   3.457   4.504   1.679
 2555SOL    HW1 8289   3.368   4.549   1.675
 2555SOL    HW2 8290   3.518   4.544   1.611
 2556SOL     OW 8291   2.858   3.844   1.753
 2556SOL    HW1 8292   2.911   3.925   1.727
 2556SOL    HW2 8293   2.908   3.762   1.725
 2557SOL     OW 8294   2.358   3.767   1.745
 2557SOL    HW1 8295   2.320   3.705   1.676
 2557SOL    HW2 8296   2.297   3.845   1.758
 2558SOL     OW 8297   2.446   4.588   1.037
 2558SOL    HW1 8298   2.474   4.682   1.017
 2558SOL    HW2 8299   2.382   4.587   1.114
 2559SOL     OW 8300   3.221   4.585   1.023
 2559SOL    HW1 8301   3.137   4.566   0.974
 2559SOL    HW2 8302   3.253   4.501   1.068
 2560SOL     OW 8303   2.590   4.360   1.053
 2560SOL    HW1 8304   2.648   4.349   0.973
 2560SOL    HW2 8305   2.544   4.449   1.050
 2561SOL     OW 8306   3.591   4.684   1.851
 2561SOL    HW1 8307   3.547   4.622   1.786
 2561SOL    HW2 8308   3.531   4.698   1.930
 2562SOL     OW 8309   2.163   3.787   0.624
 2562SOL    HW1 8310   2.144   3.883   0.645
 2562SOL    HW2 8311   2.171   3.736   0.709
 2563SOL     OW 8312   3.478   4.095   0.370
 2563SOL    HW1 8313   3.505   4.026   0.436
 2563SOL    HW2 8314   3.449   4.178   0.419
 2564SOL     OW 8315   2.886   4.479   0.968
 2564SOL    HW1 8316   2.884   4.511   1.063
 2564SOL    HW2 8317   2.874   4.380   0.966
 2565SOL     OW 8318   2.222   4.652   1.799
 2565SOL    HW1 8319   2.300   4.659   1.862
 2565SOL    HW2 8320   2.239   4.579   1.733
 2566SOL     OW 8321   3.393   3.944   0.122
 2566SOL    HW1 8322   3.317   3.900   0.169
 2566SOL    HW2 8323   3.432   4.015   0.180
 2567SOL     OW 8324   3.167   4.541   0.039
 2567SOL    HW1 8325   3.222   4.459   0.058
 2567SOL    HW2 8326   3.184   4.571  -0.055
 2568SOL     OW 8327   2.180   4.531   0.934
 2568SOL    HW1 8328   2.277   4.556   0.928
 2568SOL    HW2 8329   2.170   4.451   0.993
 2569SOL     OW 8330   2.996   4.103   1.684
 2569SOL    HW1 8331   2.944   4.166   1.742
 2569SOL    HW2 8332   3.089   4.136   1.674
 2570SOL     OW 8333   3.021   3.930   1.475
 2570SOL    HW1 8334   3.011   3.994   1.551
 2570SOL    HW2 8335   3.040   3.981   1.391
 2571SOL     OW 8336   1.814   0.037   0.260
 2571SOL    HW1 8337   1.797   0.080   0.172
 2571SOL    HW2 8338   1.884  -0.034   0.250
 2572SOL     OW 8339   2.846   4.526   1.232
 2572SOL    HW1 8340   2.904   4.495   1.308
 2572SOL    HW2 8341   2.756   4.483   1.239
 2573SOL     OW 8342   2.067   4.242   1.730
 2573SOL    HW1 8343   2.107   4.186   1.658
 2573SOL    HW2 8344   2.005   4.309   1.690
 2574SOL     OW 8345   3.235   4.665   1.657
 2574SOL    HW1 8346   3.253   4.763   1.659
 2574SOL    HW2 8347   3.236   4.632   1.562
 2575SOL     OW 8348   2.679   4.297   0.356
 2575SOL    HW1 8349   2.689   4.216   0.298
 2575SOL    HW2 8350   2.600   4.350   0.324
 2576SOL     OW 8351   3.505   4.338   1.189
 2576SOL    HW1 8352   3.482   4.269   1.259
 2576SOL    HW2 8353   3.593   4.315   1.147
 2577SOL     OW 8354   2.553   4.181   1.259
 2577SOL    HW1 8355   2.504   4.099   1.230
 2577SOL    HW2 8356   2.559   4.245   1.182
 2578SOL     OW 8357   2.337   4.226   0.213
 2578SOL    HW1 8358   2.410   4.294   0.214
 2578SOL    HW2 8359   2.251   4.268   0.244
 2579SOL     OW 8360   2.016   4.860   1.480
 2579SOL    HW1 8361   2.015   4.801   1.561
 2579SOL    HW2 8362   2.029   4.804   1.399
 2580SOL     OW 8363   3.197   4.762   1.229
 2580SOL    HW1 8364   3.222   4.709   1.148
 2580SOL    HW2 8365   3.121   4.823   1.206
 2581SOL     OW 8366   3.157   4.557   0.315
 2581SOL    HW1 8367   3.078   4.524   0.366
 2581SOL    HW2 8368   3.138   4.552   0.217
 2582SOL     OW 8369   2.748   3.803   0.125
 2582SOL    HW1 8370   2.787   3.795   0.034
 2582SOL    HW2 8371   2.810   3.763   0.192
 2583SOL     OW 8372   3.578   3.864   0.510
 2583SOL    HW1 8373   3.655   3.853   0.447
 2583SOL    HW2 8374   3.561   3.777   0.556
 2584SOL     OW 8375   3.144   4.641   0.664
 2584SOL    HW1 8376   3.220   4.577   0.672
 2584SOL    HW2 8377   3.174   4.723   0.616
 2585SOL     OW 8378   3.697   3.901   0.967
 2585SOL    HW1 8379   3.740   3.815   0.941
 2585SOL    HW2 8380   3.606   3.907   0.925
 2586SOL     OW 8381   2.124   4.042   0.708
 2586SOL    HW1 8382   2.034   4.078   0.683
 2586SOL    HW2 8383   2.136   4.047   0.807
 2587SOL     OW 8384   2.684   4.744   1.376
 2587SOL    HW1 8385   2.736   4.727   1.293
 2587SOL    HW2 8386   2.696   4.839   1.404
 2588SOL     OW 8387   2.790   4.641   0.298
 2588SOL    HW1 8388   2.860   4.668   0.233
 2588SOL    HW2 8389   2.823   4.565   0.354
 2589SOL     OW 8390   2.236   0.020   1.483
 2589SOL    HW1 8391   2.203   0.113   1.468
 2589SOL    HW2 8392   2.158  -0.044   1.482
 2590SOL     OW 8393   3.479  -0.012   1.269
 2590SOL    HW1 8394   3.513  -0.002   1.362
 2590SOL    HW2 8395   3.394   0.039   1.258
 2591SOL     OW 8396   2.922   4.809   0.720
 2591SOL    HW1 8397   2.839   4.762   0.749
 2591SOL    HW2 8398   2.983   4.744   0.675
 2592SOL     OW 8399   3.584   4.118   1.375
 2592SOL    HW1 8400   3.655   4.189   1.376
 2592SOL    HW2 8401   3.614   4.041   1.320
 2593SOL     OW 8402   1.971   4.724   1.711
 2593SOL    HW1 8403   1.893   4.719   1.774
 2593SOL    HW2 8404   2.055   4.705   1.761
 2594SOL     OW 8405   2.539   3.921   1.499
 2594SOL    HW1 8406   2.625   3.898   1.453
 2594SOL    HW2 8407   2.559   3.953   1.592
 2595SOL     OW 8408   3.295   4.580   1.402
 2595SOL    HW1 8409   3.246   4.644   1.344
 2595SOL    HW2 8410   3.392   4.579   1.377
 2596SOL     OW 8411   1.928   3.875   0.325
 2596SOL    HW1 8412   1.915   3.968   0.291
 2596SOL    HW2 8413   2.018   3.841   0.296
 2597SOL     OW 8414   2.483   4.559   1.429
 2597SOL    HW1 8415   2.540   4.640   1.419
 2597SOL    HW2 8416   2.541   4.479   1.442
 2598SOL     OW 8417   2.582   4.286   1.705
 2598SOL    HW1 8418   2.616   4.357   1.767
 2598SOL    HW2 8419   2.616   4.197   1.735
 2599SOL     OW 8420   3.325   4.931   1.659
 2599SOL    HW1 8421   3.340   4.923   1.758
 2599SOL    HW2 8422   3.413   4.935   1.613
 2600SOL     OW 8423   3.536   4.606   1.254
 2600SOL    HW1 8424   3.527   4.513   1.217
 2600SOL    HW2 8425   3.524   4.672   1.180
 2601SOL     OW 8426   3.073   4.030   0.470
 2601SOL    HW1 8427   3.145   3.964   0.451
 2601SOL    HW2 8428   3.107   4.099   0.534
 2602SOL     OW 8429   2.448   4.465   0.669
 2602SOL    HW1 8430   2.490   4.554   0.657
 2602SOL    HW2 8431   2.377   4.451   0.599
 2603SOL     OW 8432   3.629   4.088   1.641
 2603SOL    HW1 8433   3.602   4.098   1.545
 2603SOL    HW2 8434   3.563   4.029   1.688
 2604SOL     OW 8435   3.600   4.654   1.512
 2604SOL    HW1 8436   3.612   4.750   1.538
 2604SOL    HW2 8437   3.591   4.648   1.413
 2605SOL     OW 8438   2.722   4.682   0.860
 2605SOL    HW1 8439   2.779   4.610   0.901
 2605SOL    HW2 8440   2.694   4.746   0.932
 2606SOL     OW 8441   2.959   4.699   0.093
 2606SOL    HW1 8442   2.954   4.777   0.031
 2606SOL    HW2 8443   3.048   4.654   0.084
 2607SOL     OW 8444   1.898   4.947   0.639
 2607SOL    HW1 8445   1.900   4.897   0.726
 2607SOL    HW2 8446   1.992   4.969   0.612
 2608SOL     OW 8447   3.676   3.912   1.235
 2608SOL    HW1 8448   3.687   3.816   1.260
 2608SOL    HW2 8449   3.689   3.922   1.136
 2609SOL     OW 8450   2.292   4.153   0.520
 2609SOL    HW1 8451   2.330   4.081   0.463
 2609SOL    HW2 8452   2.240   4.111   0.596
 2610SOL     OW 8453   2.201   4.285   1.299
 2610SOL    HW1 8454   2.244   4.237   1.375
 2610SOL    HW2 8455   2.231   4.245   1.213
 2611SOL     OW 8456   2.861   3.722   1.163
 2611SOL    HW1 8457   2.804   3.668   1.101
 2611SOL    HW2 8458   2.957   3.697   1.151
 2612SOL     OW 8459   2.636   5.007   0.285
 2612SOL    HW1 8460   2.578   4.931   0.314
 2612SOL    HW2 8461   2.676   5.051   0.366
 2613SOL     OW 8462   3.205   3.755   0.180
 2613SOL    HW1 8463   3.222   3.737   0.083
 2613SOL    HW2 8464   3.112   3.726   0.204
 2614SOL     OW 8465   3.165   4.193   0.690
 2614SOL    HW1 8466   3.101   4.270   0.689
 2614SOL    HW2 8467   3.146   4.134   0.768
 2615SOL     OW 8468   3.442   3.933   0.877
 2615SOL    HW1 8469   3.364   3.945   0.939
 2615SOL    HW2 8470   3.454   4.015   0.822
 2616SOL     OW 8471   2.076   4.389   1.966
 2616SOL    HW1 8472   1.993   4.363   2.017
 2616SOL    HW2 8473   2.084   4.332   1.885
 2617SOL     OW 8474   1.864   4.106   2.495
 2617SOL    HW1 8475   1.783   4.139   2.543
 2617SOL    HW2 8476   1.844   4.018   2.452
 2618SOL     OW 8477   2.992   4.423   2.566
 2618SOL    HW1 8478   3.047   4.504   2.543
 2618SOL    HW2 8479   2.942   4.440   2.652
 2619SOL     OW 8480   3.626   4.327   2.089
 2619SOL    HW1 8481   3.605   4.322   1.992
 2619SOL    HW2 8482   3.587   4.248   2.136
 2620SOL     OW 8483   2.628   4.875   2.894
 2620SOL    HW1 8484   2.546   4.907   2.941
 2620SOL    HW2 8485   2.660   4.946   2.831
 2621SOL     OW 8486   2.727   4.501   3.681
 2621SOL    HW1 8487   2.714   4.569   3.753
 2621SOL    HW2 8488   2.752   4.547   3.596
 2622SOL     OW 8489   2.542   4.726   2.517
 2622SOL    HW1 8490   2.613   4.714   2.586
 2622SOL    HW2 8491   2.475   4.793   2.550
 2623SOL     OW 8492   2.571   4.885   3.663
 2623SOL    HW1 8493   2.624   4.960   3.704
 2623SOL    HW2 8494   2.483   4.921   3.630
 2624SOL     OW 8495   2.307   4.122   3.382
 2624SOL    HW1 8496   2.385   4.062   3.367
 2624SOL    HW2 8497   2.222   4.069   3.380
 2625SOL     OW 8498   3.475   4.176   2.602
 2625SOL    HW1 8499   3.393   4.193   2.547
 2625SOL    HW2 8500   3.493   4.256   2.659
 2626SOL     OW 8501   2.452   4.702   1.989
 2626SOL    HW1 8502   2.495   4.759   1.918
 2626SOL    HW2 8503   2.489   4.727   2.078
 2627SOL     OW 8504   3.454   3.847   3.333
 2627SOL    HW1 8505   3.469   3.926   3.274
 2627SOL    HW2 8506   3.448   3.877   3.428
 2628SOL     OW 8507   1.978   4.378   2.425
 2628SOL    HW1 8508   1.942   4.285   2.440
 2628SOL    HW2 8509   1.970   4.430   2.510
 2629SOL     OW 8510   3.557   4.650   2.502
 2629SOL    HW1 8511   3.643   4.600   2.491
 2629SOL    HW2 8512   3.531   4.691   2.415
 2630SOL     OW 8513   3.511   4.832   2.287
 2630SOL    HW1 8514   3.599   4.826   2.239
 2630SOL    HW2 8515   3.519   4.896   2.363
 2631SOL     OW 8516   1.986   4.465   3.443
 2631SOL    HW1 8517   2.084   4.483   3.454
 2631SOL    HW2 8518   1.935   4.550   3.456
 2632SOL     OW 8519   2.672   3.725   2.363
 2632SOL    HW1 8520   2.716   3.814   2.350
 2632SOL    HW2 8521   2.574   3.739   2.379
 2633SOL     OW 8522   2.055   4.689   3.136
 2633SOL    HW1 8523   2.143   4.645   3.117
 2633SOL    HW2 8524   1.983   4.642   3.085
 2634SOL     OW 8525   3.398   4.712   2.057
 2634SOL    HW1 8526   3.317   4.661   2.087
 2634SOL    HW2 8527   3.441   4.756   2.136
 2635SOL     OW 8528   2.202   3.970   3.683
 2635SOL    HW1 8529   2.250   4.059   3.681
 2635SOL    HW2 8530   2.105   3.985   3.699
 2636SOL     OW 8531   2.462   4.445   2.134
 2636SOL    HW1 8532   2.464   4.522   2.071
 2636SOL    HW2 8533   2.383   4.455   2.195
 2637SOL     OW 8534   3.172   4.072   2.778
 2637SOL    HW1 8535   3.085   4.027   2.757
 2637SOL    HW2 8536   3.225   4.014   2.839
 2638SOL     OW 8537   2.640   4.345   3.317
 2638SOL    HW1 8538   2.624   4.323   3.414
 2638SOL    HW2 8539   2.592   4.280   3.259
 2639SOL     OW 8540   3.255   4.194   3.543
 2639SOL    HW1 8541   3.252   4.243   3.630
 2639SOL    HW2 8542   3.323   4.121   3.548
 2640SOL     OW 8543   2.823   4.612   3.440
 2640SOL    HW1 8544   2.876   4.534   3.407
 2640SOL    HW2 8545   2.766   4.647   3.366
 2641SOL     OW 8546   2.801   4.181   3.125
 2641SOL    HW1 8547   2.706   4.188   3.155
 2641SOL    HW2 8548   2.811   4.106   3.060
 2642SOL     OW 8549   2.904   4.430   2.290
 2642SOL    HW1 8550   2.929   4.416   2.386
 2642SOL    HW2 8551   2.822   4.377   2.268
 2643SOL     OW 8552   1.951   4.546   2.644
 2643SOL    HW1 8553   2.038   4.537   2.692
 2643SOL    HW2 8554   1.903   4.627   2.677
 2644SOL     OW 8555   2.725   4.074   2.058
 2644SOL    HW1 8556   2.768   4.140   1.997
 2644SOL    HW2 8557   2.745   3.981   2.027
 2645SOL     OW 8558   3.562   4.298   3.688
 2645SOL    HW1 8559   3.530   4.381   3.642
 2645SOL    HW2 8560   3.596   4.233   3.621
 2646SOL     OW 8561   3.246   4.868   2.409
 2646SOL    HW1 8562   3.317   4.845   2.342
 2646SOL    HW2 8563   3.171   4.915   2.363
 2647SOL     OW 8564   2.403   3.910   2.757
 2647SOL    HW1 8565   2.409   3.931   2.854
 2647SOL    HW2 8566   2.417   3.993   2.703
 2648SOL     OW 8567   3.668   4.779   2.727
 2648SOL    HW1 8568   3.609   4.756   2.649
 2648SOL    HW2 8569   3.611   4.793   2.808
 2649SOL     OW 8570   2.198   4.663   2.116
 2649SOL    HW1 8571   2.279   4.691   2.064
 2649SOL    HW2 8572   2.151   4.590   2.068
 2650SOL     OW 8573   3.343   4.469   2.589
 2650SOL    HW1 8574   3.328   4.417   2.673
 2650SOL    HW2 8575   3.422   4.529   2.600
 2651SOL     OW 8576   2.053   4.012   3.407
 2651SOL    HW1 8577   1.960   4.049   3.408
 2651SOL    HW2 8578   2.055   3.925   3.456
 2652SOL     OW 8579   3.268   3.809   2.298
 2652SOL    HW1 8580   3.253   3.794   2.200
 2652SOL    HW2 8581   3.358   3.850   2.312
 2653SOL     OW 8582   2.254   4.412   2.345
 2653SOL    HW1 8583   2.277   4.315   2.353
 2653SOL    HW2 8584   2.156   4.425   2.359
 2654SOL     OW 8585   3.399   3.947   3.591
 2654SOL    HW1 8586   3.407   3.971   3.688
 2654SOL    HW2 8587   3.326   3.880   3.579
 2655SOL     OW 8588   2.494   3.848   1.966
 2655SOL    HW1 8589   2.572   3.789   1.986
 2655SOL    HW2 8590   2.444   3.812   1.888
 2656SOL     OW 8591   2.627   3.996   3.612
 2656SOL    HW1 8592   2.705   3.934   3.619
 2656SOL    HW2 8593   2.580   4.001   3.699
 2657SOL     OW 8594   3.207   4.320   3.302
 2657SOL    HW1 8595   3.237   4.282   3.389
 2657SOL    HW2 8596   3.244   4.412   3.290
 2658SOL     OW 8597   2.785   4.241   2.761
 2658SOL    HW1 8598   2.759   4.232   2.665
 2658SOL    HW2 8599   2.824   4.156   2.794
 2659SOL     OW 8600   2.407   3.784   2.366
 2659SOL    HW1 8601   2.323   3.785   2.421
 2659SOL    HW2 8602   2.409   3.866   2.308
 2660SOL     OW 8603   2.171   3.747   2.031
 2660SOL    HW1 8604   2.208   3.839   2.039
 2660SOL    HW2 8605   2.226   3.684   2.085
 2661SOL     OW 8606   2.792   3.967   2.326
 2661SOL    HW1 8607   2.762   4.018   2.246
 2661SOL    HW2 8608   2.892   3.965   2.329
 2662SOL     OW 8609   2.943   4.400   3.321
 2662SOL    HW1 8610   2.869   4.333   3.311
 2662SOL    HW2 8611   3.031   4.355   3.310
 2663SOL     OW 8612   2.307   4.861   2.608
 2663SOL    HW1 8613   2.248   4.810   2.671
 2663SOL    HW2 8614   2.283   4.835   2.514
 2664SOL     OW 8615   2.884   4.290   1.874
 2664SOL    HW1 8616   2.828   4.368   1.845
 2664SOL    HW2 8617   2.946   4.319   1.947
 2665SOL     OW 8618   2.416   3.944   3.028
 2665SOL    HW1 8619   2.465   3.864   3.062
 2665SOL    HW2 8620   2.328   3.952   3.075
 2666SOL     OW 8621   2.728   4.183   2.502
 2666SOL    HW1 8622   2.683   4.247   2.440
 2666SOL    HW2 8623   2.749   4.098   2.453
 2667SOL     OW 8624   2.892   3.762   2.601
 2667SOL    HW1 8625   2.818   3.770   2.534
 2667SOL    HW2 8626   2.866   3.698   2.673
 2668SOL     OW 8627   3.301   4.875   2.732
 2668SOL    HW1 8628   3.229   4.807   2.723
 2668SOL    HW2 8629   3.310   4.926   2.646
 2669SOL     OW 8630   3.330   4.329   2.840
 2669SOL    HW1 8631   3.281   4.243   2.833
 2669SOL    HW2 8632   3.392   4.326   2.919
 2670SOL     OW 8633   3.704   4.538   2.245
 2670SOL    HW1 8634   3.767   4.489   2.306
 2670SOL    HW2 8635   3.676   4.478   2.170
 2671SOL     OW 8636   2.401   3.986   2.183
 2671SOL    HW1 8637   2.437   3.936   2.104
 2671SOL    HW2 8638   2.403   4.084   2.164
 2672SOL     OW 8639   3.621   4.928   3.443
 2672SOL    HW1 8640   3.718   4.908   3.429
 2672SOL    HW2 8641   3.607   5.027   3.445
 2673SOL     OW 8642   3.492   4.812   2.931
 2673SOL    HW1 8643   3.495   4.879   3.005
 2673SOL    HW2 8644   3.416   4.833   2.870
 2674SOL     OW 8645   2.778   3.821   3.261
 2674SOL    HW1 8646   2.801   3.788   3.169
 2674SOL    HW2 8647   2.860   3.861   3.303
 2675SOL     OW 8648   2.840   4.840   3.585
 2675SOL    HW1 8649   2.742   4.850   3.603
 2675SOL    HW2 8650   2.855   4.759   3.527
 2676SOL     OW 8651   2.566   4.777   2.228
 2676SOL    HW1 8652   2.548   4.772   2.326
 2676SOL    HW2 8653   2.648   4.723   2.206
 2677SOL     OW 8654   2.284   4.537   3.114
 2677SOL    HW1 8655   2.356   4.553   3.181
 2677SOL    HW2 8656   2.242   4.448   3.131
 2678SOL     OW 8657   2.224   4.806   2.357
 2678SOL    HW1 8658   2.237   4.895   2.314
 2678SOL    HW2 8659   2.211   4.737   2.285
 2679SOL     OW 8660   2.420   4.263   2.721
 2679SOL    HW1 8661   2.434   4.324   2.643
 2679SOL    HW2 8662   2.480   4.290   2.796
 2680SOL     OW 8663   3.445   4.349   2.337
 2680SOL    HW1 8664   3.396   4.401   2.406
 2680SOL    HW2 8665   3.495   4.412   2.277
 2681SOL     OW 8666   2.276   4.467   3.460
 2681SOL    HW1 8667   2.343   4.516   3.404
 2681SOL    HW2 8668   2.310   4.375   3.480
 2682SOL     OW 8669   3.461   4.505   3.542
 2682SOL    HW1 8670   3.370   4.546   3.539
 2682SOL    HW2 8671   3.519   4.547   3.472
 2683SOL     OW 8672   2.860   3.844   3.619
 2683SOL    HW1 8673   2.911   3.926   3.594
 2683SOL    HW2 8674   2.911   3.763   3.590
 2684SOL     OW 8675   2.361   3.765   3.606
 2684SOL    HW1 8676   2.317   3.707   3.537
 2684SOL    HW2 8677   2.301   3.842   3.628
 2685SOL     OW 8678   2.443   4.589   2.893
 2685SOL    HW1 8679   2.476   4.682   2.881
 2685SOL    HW2 8680   2.384   4.584   2.974
 2686SOL     OW 8681   3.215   4.583   2.892
 2686SOL    HW1 8682   3.132   4.576   2.836
 2686SOL    HW2 8683   3.262   4.495   2.892
 2687SOL     OW 8684   2.586   4.354   2.922
 2687SOL    HW1 8685   2.662   4.334   2.860
 2687SOL    HW2 8686   2.551   4.446   2.902
 2688SOL     OW 8687   3.591   4.687   3.712
 2688SOL    HW1 8688   3.546   4.624   3.648
 2688SOL    HW2 8689   3.533   4.698   3.793
 2689SOL     OW 8690   2.162   3.789   2.485
 2689SOL    HW1 8691   2.142   3.884   2.507
 2689SOL    HW2 8692   2.171   3.736   2.570
 2690SOL     OW 8693   3.478   4.097   2.233
 2690SOL    HW1 8694   3.505   4.030   2.303
 2690SOL    HW2 8695   3.451   4.182   2.278
 2691SOL     OW 8696   2.888   4.484   2.827
 2691SOL    HW1 8697   2.889   4.505   2.925
 2691SOL    HW2 8698   2.856   4.391   2.813
 2692SOL     OW 8699   2.217   4.639   3.667
 2692SOL    HW1 8700   2.298   4.659   3.723
 2692SOL    HW2 8701   2.242   4.574   3.595
 2693SOL     OW 8702   3.394   3.988   1.992
 2693SOL    HW1 8703   3.328   3.918   2.020
 2693SOL    HW2 8704   3.427   4.038   2.072
 2694SOL     OW 8705   3.159   4.546   1.891
 2694SOL    HW1 8706   3.227   4.475   1.908
 2694SOL    HW2 8707   3.183   4.595   1.806
 2695SOL     OW 8708   2.177   4.528   2.801
 2695SOL    HW1 8709   2.273   4.555   2.804
 2695SOL    HW2 8710   2.168   4.431   2.821
 2696SOL     OW 8711   2.174   4.253   2.827
 2696SOL    HW1 8712   2.160   4.159   2.855
 2696SOL    HW2 8713   2.262   4.261   2.780
 2697SOL     OW 8714   2.997   4.099   3.552
 2697SOL    HW1 8715   2.943   4.160   3.610
 2697SOL    HW2 8716   3.089   4.137   3.539
 2698SOL     OW 8717   3.018   3.923   3.348
 2698SOL    HW1 8718   3.008   3.986   3.425
 2698SOL    HW2 8719   3.043   3.975   3.266
 2699SOL     OW 8720   2.845   4.526   3.095
 2699SOL    HW1 8721   2.905   4.497   3.170
 2699SOL    HW2 8722   2.760   4.474   3.098
 2700SOL     OW 8723   1.898   4.301   2.999
 2700SOL    HW1 8724   1.954   4.284   2.918
 2700SOL    HW2 8725   1.957   4.323   3.076
 2701SOL     OW 8726   2.058   4.250   3.584
 2701SOL    HW1 8727   2.113   4.198   3.519
 2701SOL    HW2 8728   2.014   4.327   3.536
 2702SOL     OW 8729   3.236   4.667   3.519
 2702SOL    HW1 8730   3.249   4.766   3.520
 2702SOL    HW2 8731   3.238   4.634   3.424
 2703SOL     OW 8732   2.674   4.293   2.219
 2703SOL    HW1 8733   2.676   4.214   2.158
 2703SOL    HW2 8734   2.599   4.354   2.192
 2704SOL     OW 8735   3.503   4.327   3.049
 2704SOL    HW1 8736   3.488   4.268   3.129
 2704SOL    HW2 8737   3.595   4.311   3.013
 2705SOL     OW 8738   2.532   4.185   3.127
 2705SOL    HW1 8739   2.489   4.101   3.095
 2705SOL    HW2 8740   2.543   4.248   3.050
 2706SOL     OW 8741   2.016   4.858   3.344
 2706SOL    HW1 8742   2.013   4.801   3.426
 2706SOL    HW2 8743   2.029   4.801   3.263
 2707SOL     OW 8744   3.201   4.761   3.096
 2707SOL    HW1 8745   3.218   4.702   3.017
 2707SOL    HW2 8746   3.125   4.823   3.075
 2708SOL     OW 8747   3.165   4.582   2.166
 2708SOL    HW1 8748   3.092   4.543   2.223
 2708SOL    HW2 8749   3.140   4.574   2.070
 2709SOL     OW 8750   3.583   3.863   2.380
 2709SOL    HW1 8751   3.649   3.833   2.312
 2709SOL    HW2 8752   3.549   3.784   2.431
 2710SOL     OW 8753   3.145   4.642   2.524
 2710SOL    HW1 8754   3.220   4.578   2.540
 2710SOL    HW2 8755   3.181   4.725   2.481
 2711SOL     OW 8756   3.708   3.904   2.829
 2711SOL    HW1 8757   3.749   3.816   2.805
 2711SOL    HW2 8758   3.619   3.913   2.783
 2712SOL     OW 8759   2.119   4.041   2.575
 2712SOL    HW1 8760   2.033   4.080   2.543
 2712SOL    HW2 8761   2.115   4.027   2.674
 2713SOL     OW 8762   2.682   4.743   3.239
 2713SOL    HW1 8763   2.734   4.721   3.156
 2713SOL    HW2 8764   2.695   4.840   3.261
 2714SOL     OW 8765   2.779   4.634   2.150
 2714SOL    HW1 8766   2.841   4.665   2.078
 2714SOL    HW2 8767   2.824   4.563   2.204
 2715SOL     OW 8768   2.240   0.008   3.372
 2715SOL    HW1 8769   2.219   0.102   3.343
 2715SOL    HW2 8770   2.158  -0.049   3.361
 2716SOL     OW 8771   3.488  -0.009   3.130
 2716SOL    HW1 8772   3.513  -0.003   3.227
 2716SOL    HW2 8773   3.400   0.036   3.116
 2717SOL     OW 8774   2.923   4.806   2.580
 2717SOL    HW1 8775   2.838   4.761   2.609
 2717SOL    HW2 8776   2.984   4.739   2.537
 2718SOL     OW 8777   3.586   4.117   3.241
 2718SOL    HW1 8778   3.657   4.187   3.240
 2718SOL    HW2 8779   3.613   4.042   3.181
 2719SOL     OW 8780   1.972   4.727   3.575
 2719SOL    HW1 8781   1.893   4.719   3.636
 2719SOL    HW2 8782   2.055   4.703   3.625
 2720SOL     OW 8783   2.539   3.920   3.357
 2720SOL    HW1 8784   2.626   3.897   3.315
 2720SOL    HW2 8785   2.554   3.950   3.451
 2721SOL     OW 8786   3.298   4.580   3.266
 2721SOL    HW1 8787   3.248   4.646   3.210
 2721SOL    HW2 8788   3.394   4.579   3.240
 2722SOL     OW 8789   2.482   4.560   3.293
 2722SOL    HW1 8790   2.540   4.641   3.280
 2722SOL    HW2 8791   2.540   4.480   3.305
 2723SOL     OW 8792   2.584   4.287   3.569
 2723SOL    HW1 8793   2.617   4.356   3.634
 2723SOL    HW2 8794   2.612   4.196   3.600
 2724SOL     OW 8795   3.319   4.937   3.528
 2724SOL    HW1 8796   3.345   4.919   3.623
 2724SOL    HW2 8797   3.402   4.937   3.471
 2725SOL     OW 8798   3.540   4.604   3.114
 2725SOL    HW1 8799   3.524   4.514   3.075
 2725SOL    HW2 8800   3.522   4.674   3.044
 2726SOL     OW 8801   2.451   4.462   2.529
 2726SOL    HW1 8802   2.492   4.553   2.519
 2726SOL    HW2 8803   2.379   4.451   2.461
 2727SOL     OW 8804   3.617   4.088   3.509
 2727SOL    HW1 8805   3.602   4.103   3.411
 2727SOL    HW2 8806   3.546   4.027   3.545
 2728SOL     OW 8807   3.603   4.653   3.373
 2728SOL    HW1 8808   3.612   4.749   3.400
 2728SOL    HW2 8809   3.593   4.648   3.274
 2729SOL     OW 8810   2.722   4.682   2.723
 2729SOL    HW1 8811   2.780   4.610   2.761
 2729SOL    HW2 8812   2.695   4.745   2.796
 2730SOL     OW 8813   2.937   4.697   1.943
 2730SOL    HW1 8814   2.913   4.761   1.870
 2730SOL    HW2 8815   3.019   4.647   1.918
 2731SOL     OW 8816   1.902   4.952   2.503
 2731SOL    HW1 8817   1.899   4.891   2.582
 2731SOL    HW2 8818   1.997   4.969   2.477
 2732SOL     OW 8819   3.665   3.910   3.095
 2732SOL    HW1 8820   3.699   3.820   3.126
 2732SOL    HW2 8821   3.682   3.920   2.997
 2733SOL     OW 8822   2.295   4.149   2.386
 2733SOL    HW1 8823   2.324   4.072   2.330
 2733SOL    HW2 8824   2.240   4.116   2.463
 2734SOL     OW 8825   3.325   3.938   2.967
 2734SOL    HW1 8826   3.358   3.850   3.002
 2734SOL    HW2 8827   3.278   3.988   3.040
 2735SOL     OW 8828   2.858   3.715   3.021
 2735SOL    HW1 8829   2.801   3.660   2.959
 2735SOL    HW2 8830   2.954   3.690   3.010
 2736SOL     OW 8831   2.646   0.022   2.124
 2736SOL    HW1 8832   2.601  -0.058   2.161
 2736SOL    HW2 8833   2.719   0.051   2.186
 2737SOL     OW 8834   3.223   3.763   2.032
 2737SOL    HW1 8835   3.253   3.711   1.952
 2737SOL    HW2 8836   3.132   3.733   2.059
 2738SOL     OW 8837   3.179   4.203   2.542
 2738SOL    HW1 8838   3.109   4.274   2.542
 2738SOL    HW2 8839   3.176   4.152   2.629
 2739SOL     OW 8840   3.458   3.928   2.729
 2739SOL    HW1 8841   3.404   3.940   2.812
 2739SOL    HW2 8842   3.455   4.013   2.675
 2740SOL     OW 8843   2.094   4.337   3.844
 2740SOL    HW1 8844   2.004   4.350   3.884
 2740SOL    HW2 8845   2.086   4.316   3.747
 2741SOL     OW 8846   1.861   4.101   4.366
 2741SOL    HW1 8847   1.777   4.137   4.408
 2741SOL    HW2 8848   1.840   4.017   4.316
 2742SOL     OW 8849   2.993   4.426   4.424
 2742SOL    HW1 8850   3.049   4.507   4.403
 2742SOL    HW2 8851   2.945   4.440   4.510
 2743SOL     OW 8852   3.626   4.328   3.951
 2743SOL    HW1 8853   3.606   4.322   3.853
 2743SOL    HW2 8854   3.593   4.246   3.997
 2744SOL     OW 8855   2.631   4.874   4.745
 2744SOL    HW1 8856   2.562   4.902   4.812
 2744SOL    HW2 8857   2.651   4.951   4.684
 2745SOL     OW 8858   2.550   4.723   4.375
 2745SOL    HW1 8859   2.620   4.710   4.445
 2745SOL    HW2 8860   2.474   4.776   4.413
 2746SOL     OW 8861   3.474   4.175   4.464
 2746SOL    HW1 8862   3.387   4.189   4.417
 2746SOL    HW2 8863   3.498   4.257   4.516
 2747SOL     OW 8864   2.110   4.817   4.630
 2747SOL    HW1 8865   2.121   4.720   4.650
 2747SOL    HW2 8866   2.027   4.851   4.673
 2748SOL     OW 8867   2.455   4.703   3.851
 2748SOL    HW1 8868   2.497   4.759   3.780
 2748SOL    HW2 8869   2.490   4.730   3.941
 2749SOL     OW 8870   1.981   4.380   4.290
 2749SOL    HW1 8871   1.940   4.290   4.304
 2749SOL    HW2 8872   1.969   4.435   4.373
 2750SOL     OW 8873   3.555   4.648   4.363
 2750SOL    HW1 8874   3.643   4.602   4.350
 2750SOL    HW2 8875   3.530   4.695   4.279
 2751SOL     OW 8876   3.518   4.824   4.150
 2751SOL    HW1 8877   3.604   4.827   4.098
 2751SOL    HW2 8878   3.519   4.896   4.220
 2752SOL     OW 8879   2.676   3.734   4.231
 2752SOL    HW1 8880   2.712   3.821   4.196
 2752SOL    HW2 8881   2.577   3.743   4.243
 2753SOL     OW 8882   2.055   4.698   4.987
 2753SOL    HW1 8883   2.139   4.652   4.961
 2753SOL    HW2 8884   1.976   4.643   4.959
 2754SOL     OW 8885   3.403   4.713   3.920
 2754SOL    HW1 8886   3.321   4.661   3.943
 2754SOL    HW2 8887   3.440   4.757   4.001
 2755SOL     OW 8888   2.460   4.451   3.994
 2755SOL    HW1 8889   2.469   4.531   3.935
 2755SOL    HW2 8890   2.389   4.467   4.062
 2756SOL     OW 8891   3.141   4.072   4.665
 2756SOL    HW1 8892   3.046   4.041   4.665
 2756SOL    HW2 8893   3.196   4.013   4.725
 2757SOL     OW 8894   2.905   4.430   4.151
 2757SOL    HW1 8895   2.928   4.418   4.247
 2757SOL    HW2 8896   2.825   4.375   4.128
 2758SOL     OW 8897   1.949   4.546   4.505
 2758SOL    HW1 8898   2.037   4.537   4.552
 2758SOL    HW2 8899   1.902   4.627   4.539
 2759SOL     OW 8900   2.714   4.080   3.893
 2759SOL    HW1 8901   2.770   4.143   3.839
 2759SOL    HW2 8902   2.756   3.989   3.892
 2760SOL     OW 8903   2.405   3.908   4.622
 2760SOL    HW1 8904   2.402   3.938   4.718
 2760SOL    HW2 8905   2.418   3.986   4.562
 2761SOL     OW 8906   3.653   4.775   4.597
 2761SOL    HW1 8907   3.605   4.756   4.511
 2761SOL    HW2 8908   3.586   4.784   4.670
 2762SOL     OW 8909   2.189   4.663   3.972
 2762SOL    HW1 8910   2.273   4.699   3.932
 2762SOL    HW2 8911   2.154   4.589   3.914
 2763SOL     OW 8912   3.341   4.470   4.451
 2763SOL    HW1 8913   3.328   4.413   4.532
 2763SOL    HW2 8914   3.424   4.525   4.461
 2764SOL     OW 8915   3.274   3.798   4.155
 2764SOL    HW1 8916   3.257   3.789   4.057
 2764SOL    HW2 8917   3.363   3.842   4.170
 2765SOL     OW 8918   2.258   4.410   4.207
 2765SOL    HW1 8919   2.287   4.316   4.224
 2765SOL    HW2 8920   2.159   4.418   4.220
 2766SOL     OW 8921   2.485   3.832   3.840
 2766SOL    HW1 8922   2.578   3.796   3.836
 2766SOL    HW2 8923   2.437   3.809   3.756
 2767SOL     OW 8924   2.790   4.233   4.626
 2767SOL    HW1 8925   2.765   4.224   4.529
 2767SOL    HW2 8926   2.823   4.145   4.660
 2768SOL     OW 8927   2.408   3.791   4.224
 2768SOL    HW1 8928   2.325   3.787   4.279
 2768SOL    HW2 8929   2.407   3.872   4.166
 2769SOL     OW 8930   2.165   3.742   3.890
 2769SOL    HW1 8931   2.205   3.830   3.865
 2769SOL    HW2 8932   2.229   3.690   3.946
 2770SOL     OW 8933   2.328   4.840   4.472
 2770SOL    HW1 8934   2.248   4.831   4.531
 2770SOL    HW2 8935   2.299   4.863   4.379
 2771SOL     OW 8936   2.882   4.275   3.742
 2771SOL    HW1 8937   2.828   4.353   3.712
 2771SOL    HW2 8938   2.952   4.306   3.806
 2772SOL     OW 8939   2.727   4.187   4.364
 2772SOL    HW1 8940   2.676   4.252   4.308
 2772SOL    HW2 8941   2.758   4.111   4.307
 2773SOL     OW 8942   2.865   3.772   4.475
 2773SOL    HW1 8943   2.809   3.759   4.393
 2773SOL    HW2 8944   2.854   3.693   4.535
 2774SOL     OW 8945   3.309   4.865   4.595
 2774SOL    HW1 8946   3.226   4.815   4.573
 2774SOL    HW2 8947   3.318   4.945   4.536
 2775SOL     OW 8948   3.329   4.329   4.704
 2775SOL    HW1 8949   3.277   4.244   4.696
 2775SOL    HW2 8950   3.394   4.321   4.781
 2776SOL     OW 8951   3.707   4.536   4.108
 2776SOL    HW1 8952   3.768   4.486   4.169
 2776SOL    HW2 8953   3.677   4.476   4.034
 2777SOL     OW 8954   3.257   4.295   3.800
 2777SOL    HW1 8955   3.215   4.275   3.889
 2777SOL    HW2 8956   3.355   4.276   3.804
 2778SOL     OW 8957   2.396   3.993   4.043
 2778SOL    HW1 8958   2.430   3.932   3.972
 2778SOL    HW2 8959   2.376   4.082   4.003
 2779SOL     OW 8960   3.484   4.825   4.805
 2779SOL    HW1 8961   3.474   4.895   4.876
 2779SOL    HW2 8962   3.411   4.836   4.737
 2780SOL     OW 8963   2.567   4.775   4.091
 2780SOL    HW1 8964   2.553   4.771   4.190
 2780SOL    HW2 8965   2.649   4.723   4.067
 2781SOL     OW 8966   2.286   4.542  -0.030
 2781SOL    HW1 8967   2.349   4.577   0.040
 2781SOL    HW2 8968   2.225   4.475   0.011
 2782SOL     OW 8969   2.410   4.264   4.594
 2782SOL    HW1 8970   2.423   4.317   4.510
 2782SOL    HW2 8971   2.477   4.292   4.662
 2783SOL     OW 8972   3.443   4.350   4.196
 2783SOL    HW1 8973   3.395   4.402   4.267
 2783SOL    HW2 8974   3.496   4.412   4.138
 2784SOL     OW 8975   2.450   4.588   4.754
 2784SOL    HW1 8976   2.470   4.685   4.735
 2784SOL    HW2 8977   2.386   4.582   4.830
 2785SOL     OW 8978   3.208   4.567   4.773
 2785SOL    HW1 8979   3.142   4.589   4.702
 2785SOL    HW2 8980   3.258   4.484   4.746
 2786SOL     OW 8981   2.589   4.355   4.779
 2786SOL    HW1 8982   2.665   4.333   4.718
 2786SOL    HW2 8983   2.555   4.447   4.758
 2787SOL     OW 8984   2.166   3.791   4.347
 2787SOL    HW1 8985   2.145   3.886   4.369
 2787SOL    HW2 8986   2.171   3.738   4.431
 2788SOL     OW 8987   3.477   4.097   4.096
 2788SOL    HW1 8988   3.505   4.029   4.164
 2788SOL    HW2 8989   3.452   4.182   4.142
 2789SOL     OW 8990   2.887   4.478   4.679
 2789SOL    HW1 8991   2.880   4.499   4.777
 2789SOL    HW2 8992   2.858   4.384   4.663
 2790SOL     OW 8993   3.391   3.995   3.855
 2790SOL    HW1 8994   3.327   3.922   3.878
 2790SOL    HW2 8995   3.426   4.036   3.939
 2791SOL     OW 8996   3.158   4.551   3.756
 2791SOL    HW1 8997   3.202   4.461   3.763
 2791SOL    HW2 8998   3.187   4.596   3.671
 2792SOL     OW 8999   2.176   4.538   4.667
 2792SOL    HW1 9000   2.273   4.558   4.655
 2792SOL    HW2 9001   2.165   4.447   4.706
 2793SOL     OW 9002   2.176   4.240   4.729
 2793SOL    HW1 9003   2.149   4.145   4.717
 2793SOL    HW2 9004   2.261   4.257   4.680
 2794SOL     OW 9005   2.829   4.516   4.939
 2794SOL    HW1 9006   2.879   4.557   5.015
 2794SOL    HW2 9007   2.733   4.502   4.966
 2795SOL     OW 9008   1.910   4.287   4.835
 2795SOL    HW1 9009   1.991   4.270   4.780
 2795SOL    HW2 9010   1.937   4.326   4.923
 2796SOL     OW 9011   2.677   4.289   4.076
 2796SOL    HW1 9012   2.674   4.210   4.015
 2796SOL    HW2 9013   2.603   4.352   4.053
 2797SOL     OW 9014   3.506   4.321   4.910
 2797SOL    HW1 9015   3.498   4.249   4.979
 2797SOL    HW2 9016   3.596   4.315   4.866
 2798SOL     OW 9017   2.557   4.189   4.992
 2798SOL    HW1 9018   2.490   4.118   4.968
 2798SOL    HW2 9019   2.567   4.253   4.915
 2799SOL     OW 9020   2.340   4.223   3.907
 2799SOL    HW1 9021   2.398   4.301   3.931
 2799SOL    HW2 9022   2.247   4.256   3.890
 2800SOL     OW 9023   1.979   4.819   0.223
 2800SOL    HW1 9024   2.039   4.775   0.290
 2800SOL    HW2 9025   2.012   4.799   0.131
 2801SOL     OW 9026   3.162   4.573   4.032
 2801SOL    HW1 9027   3.081   4.538   4.080
 2801SOL    HW2 9028   3.146   4.571   3.933
 2802SOL     OW 9029   3.581   3.863   4.239
 2802SOL    HW1 9030   3.653   3.835   4.175
 2802SOL    HW2 9031   3.549   3.782   4.289
 2803SOL     OW 9032   3.151   4.646   4.383
 2803SOL    HW1 9033   3.223   4.580   4.404
 2803SOL    HW2 9034   3.181   4.706   4.308
 2804SOL     OW 9035   3.702   3.897   4.688
 2804SOL    HW1 9036   3.736   3.806   4.661
 2804SOL    HW2 9037   3.611   3.911   4.649
 2805SOL     OW 9038   2.121   4.044   4.440
 2805SOL    HW1 9039   2.035   4.081   4.404
 2805SOL    HW2 9040   2.108   4.020   4.537
 2806SOL     OW 9041   2.667   4.782   0.035
 2806SOL    HW1 9042   2.740   4.741  -0.020
 2806SOL    HW2 9043   2.702   4.802   0.127
 2807SOL     OW 9044   2.780   4.634   4.009
 2807SOL    HW1 9045   2.843   4.669   3.940
 2807SOL    HW2 9046   2.825   4.563   4.063
 2808SOL     OW 9047   3.460   0.024  -0.003
 2808SOL    HW1 9048   3.527  -0.019   0.057
 2808SOL    HW2 9049   3.417   0.101   0.045
 2809SOL     OW 9050   2.925   4.804   4.446
 2809SOL    HW1 9051   2.839   4.760   4.473
 2809SOL    HW2 9052   2.982   4.739   4.396
 2810SOL     OW 9053   2.887   3.964   4.679
 2810SOL    HW1 9054   2.878   3.908   4.596
 2810SOL    HW2 9055   2.867   3.908   4.759
 2811SOL     OW 9056   3.602   4.128   0.075
 2811SOL    HW1 9057   3.686   4.162   0.117
 2811SOL    HW2 9058   3.619   4.040   0.032
 2812SOL     OW 9059   1.944   4.046   3.715
 2812SOL    HW1 9060   1.844   4.043   3.711
 2812SOL    HW2 9061   1.976   4.131   3.673
 2813SOL     OW 9062   3.556   4.600   4.962
 2813SOL    HW1 9063   3.520   4.513   4.929
 2813SOL    HW2 9064   3.525   4.674   4.903
 2814SOL     OW 9065   2.451   4.464   4.393
 2814SOL    HW1 9066   2.495   4.553   4.382
 2814SOL    HW2 9067   2.380   4.452   4.324
 2815SOL     OW 9068   3.593   4.690   0.213
 2815SOL    HW1 9069   3.686   4.726   0.214
 2815SOL    HW2 9070   3.573   4.650   0.123
 2816SOL     OW 9071   2.724   4.680   4.581
 2816SOL    HW1 9072   2.779   4.608   4.622
 2816SOL    HW2 9073   2.694   4.744   4.652
 2817SOL     OW 9074   2.941   4.709   3.808
 2817SOL    HW1 9075   2.916   4.768   3.732
 2817SOL    HW2 9076   3.022   4.655   3.784
 2818SOL     OW 9077   1.908   4.950   4.366
 2818SOL    HW1 9078   1.907   4.888   4.444
 2818SOL    HW2 9079   2.002   4.977   4.346
 2819SOL     OW 9080   3.687   3.901   4.960
 2819SOL    HW1 9081   3.705   3.805   4.983
 2819SOL    HW2 9082   3.688   3.912   4.861
 2820SOL     OW 9083   2.332   4.158   4.276
 2820SOL    HW1 9084   2.348   4.095   4.200
 2820SOL    HW2 9085   2.262   4.119   4.337
 2821SOL     OW 9086   3.302   3.944   4.842
 2821SOL    HW1 9087   3.374   3.883   4.874
 2821SOL    HW2 9088   3.269   4.000   4.918
 2822SOL     OW 9089   2.858   3.749   4.872
 2822SOL    HW1 9090   2.807   3.680   4.821
 2822SOL    HW2 9091   2.955   3.724   4.873
 2823SOL     OW 9092   2.645   0.019   3.986
 2823SOL    HW1 9093   2.598  -0.060   4.024
 2823SOL    HW2 9094   2.718   0.048   4.048
 2824SOL     OW 9095   3.223   3.767   3.884
 2824SOL    HW1 9096   3.253   3.707   3.809
 2824SOL    HW2 9097   3.133   3.738   3.915
 2825SOL     OW 9098   3.185   4.200   4.428
 2825SOL    HW1 9099   3.113   4.268   4.413
 2825SOL    HW2 9100   3.163   4.146   4.509
 2826SOL     OW 9101   3.451   3.934   4.600
 2826SOL    HW1 9102   3.381   3.944   4.671
 2826SOL    HW2 9103   3.452   4.015   4.542
 2827SOL     OW 9104   3.942   0.595   0.121
 2827SOL    HW1 9105   3.862   0.645   0.154
 2827SOL    HW2 9106   3.965   0.626   0.029
 2828SOL     OW 9107   3.729   0.385   0.636
 2828SOL    HW1 9108   3.642   0.411   0.678
 2828SOL    HW2 9109   3.715   0.302   0.581
 2829SOL     OW 9110   4.844   0.720   0.699
 2829SOL    HW1 9111   4.921   0.783   0.694
 2829SOL    HW2 9112   4.801   0.726   0.790
 2830SOL     OW 9113   4.458   1.142   1.023
 2830SOL    HW1 9114   4.411   1.165   1.108
 2830SOL    HW2 9115   4.512   1.221   0.993
 2831SOL     OW 9116   4.597   0.784   1.828
 2831SOL    HW1 9117   4.540   0.846   1.882
 2831SOL    HW2 9118   4.617   0.825   1.740
 2832SOL     OW 9119   4.407   1.008   0.652
 2832SOL    HW1 9120   4.479   0.990   0.719
 2832SOL    HW2 9121   4.334   1.061   0.695
 2833SOL     OW 9122   4.431   1.155   1.808
 2833SOL    HW1 9123   4.482   1.237   1.835
 2833SOL    HW2 9124   4.341   1.182   1.773
 2834SOL     OW 9125   4.033   1.451   1.067
 2834SOL    HW1 9126   3.970   1.394   1.015
 2834SOL    HW2 9127   4.103   1.488   1.006
 2835SOL     OW 9128   4.170   0.394   1.477
 2835SOL    HW1 9129   4.252   0.338   1.491
 2835SOL    HW2 9130   4.089   0.340   1.498
 2836SOL     OW 9131   3.948   1.715   0.473
 2836SOL    HW1 9132   3.972   1.794   0.529
 2836SOL    HW2 9133   4.021   1.697   0.407
 2837SOL     OW 9134   4.859   1.342   1.694
 2837SOL    HW1 9135   4.899   1.346   1.786
 2837SOL    HW2 9136   4.801   1.260   1.688
 2838SOL     OW 9137   3.957   1.446   0.549
 2838SOL    HW1 9138   3.938   1.544   0.544
 2838SOL    HW2 9139   3.887   1.401   0.605
 2839SOL     OW 9140   4.340   1.796   1.439
 2839SOL    HW1 9141   4.251   1.773   1.480
 2839SOL    HW2 9142   4.360   1.892   1.456
 2840SOL     OW 9143   4.350   0.944   0.126
 2840SOL    HW1 9144   4.336   1.020   0.063
 2840SOL    HW2 9145   4.384   0.978   0.214
 2841SOL     OW 9146   3.848   0.630   0.575
 2841SOL    HW1 9147   3.806   0.541   0.593
 2841SOL    HW2 9148   3.829   0.692   0.651
 2842SOL     OW 9149   3.760   1.563   0.124
 2842SOL    HW1 9150   3.731   1.494   0.191
 2842SOL    HW2 9151   3.724   1.652   0.151
 2843SOL     OW 9152   3.847   0.742   1.587
 2843SOL    HW1 9153   3.945   0.757   1.591
 2843SOL    HW2 9154   3.799   0.830   1.586
 2844SOL     OW 9155   4.338   1.386   0.732
 2844SOL    HW1 9156   4.291   1.298   0.746
 2844SOL    HW2 9157   4.320   1.418   0.638
 2845SOL     OW 9158   4.539   0.028   0.570
 2845SOL    HW1 9159   4.575   0.113   0.532
 2845SOL    HW2 9160   4.440   0.024   0.555
 2846SOL     OW 9161   3.906   0.949   1.300
 2846SOL    HW1 9162   3.996   0.909   1.281
 2846SOL    HW2 9163   3.837   0.900   1.247
 2847SOL     OW 9164   4.049   0.261   1.792
 2847SOL    HW1 9165   4.116   0.326   1.829
 2847SOL    HW2 9166   3.963   0.270   1.842
 2848SOL     OW 9167   4.324   0.718   0.273
 2848SOL    HW1 9168   4.330   0.794   0.208
 2848SOL    HW2 9169   4.247   0.733   0.335
 2849SOL     OW 9170   4.527   0.621   1.460
 2849SOL    HW1 9171   4.497   0.598   1.553
 2849SOL    HW2 9172   4.483   0.559   1.394
 2850SOL     OW 9173   4.687   0.886   1.578
 2850SOL    HW1 9174   4.740   0.808   1.544
 2850SOL    HW2 9175   4.633   0.924   1.503
 2851SOL     OW 9176   4.711   0.393   1.261
 2851SOL    HW1 9177   4.620   0.428   1.286
 2851SOL    HW2 9178   4.713   0.373   1.163
 2852SOL     OW 9179   4.770   0.685   0.430
 2852SOL    HW1 9180   4.786   0.691   0.529
 2852SOL    HW2 9181   4.681   0.641   0.413
 2853SOL     OW 9182   3.812   0.817   0.775
 2853SOL    HW1 9183   3.901   0.807   0.821
 2853SOL    HW2 9184   3.764   0.896   0.815
 2854SOL     OW 9185   3.852   1.858   1.582
 2854SOL    HW1 9186   3.850   1.825   1.676
 2854SOL    HW2 9187   3.765   1.839   1.536
 2855SOL     OW 9188   4.614   0.353   0.207
 2855SOL    HW1 9189   4.647   0.420   0.141
 2855SOL    HW2 9190   4.622   0.261   0.169
 2856SOL     OW 9191   4.726   1.441   0.470
 2856SOL    HW1 9192   4.684   1.518   0.422
 2856SOL    HW2 9193   4.722   1.457   0.569
 2857SOL     OW 9194   4.939   1.548   1.519
 2857SOL    HW1 9195   4.937   1.478   1.590
 2857SOL    HW2 9196   4.875   1.524   1.446
 2858SOL     OW 9197   4.187   1.263   1.735
 2858SOL    HW1 9198   4.161   1.269   1.638
 2858SOL    HW2 9199   4.104   1.265   1.792
 2859SOL     OW 9200   4.800   1.781   0.234
 2859SOL    HW1 9201   4.739   1.723   0.288
 2859SOL    HW2 9202   4.855   1.723   0.173
 2860SOL     OW 9203   3.932   0.273   1.511
 2860SOL    HW1 9204   3.850   0.323   1.482
 2860SOL    HW2 9205   3.919   0.239   1.604
 2861SOL     OW 9206   4.199   1.719   0.340
 2861SOL    HW1 9207   4.228   1.795   0.398
 2861SOL    HW2 9208   4.255   1.717   0.257
 2862SOL     OW 9209   3.971   1.769   1.245
 2862SOL    HW1 9210   4.038   1.716   1.296
 2862SOL    HW2 9211   3.971   1.740   1.150
 2863SOL     OW 9212   4.661   1.704   0.898
 2863SOL    HW1 9213   4.738   1.652   0.934
 2863SOL    HW2 9214   4.616   1.652   0.826
 2864SOL     OW 9215   4.112   0.696   0.477
 2864SOL    HW1 9216   4.144   0.601   0.480
 2864SOL    HW2 9217   4.016   0.699   0.502
 2865SOL     OW 9218   4.389   0.157   0.066
 2865SOL    HW1 9219   4.446   0.112   0.135
 2865SOL    HW2 9220   4.325   0.089   0.028
 2866SOL     OW 9221   4.504   0.293   1.751
 2866SOL    HW1 9222   4.584   0.234   1.748
 2866SOL    HW2 9223   4.440   0.260   1.820
 2867SOL     OW 9224   4.598   1.524   1.188
 2867SOL    HW1 9225   4.579   1.484   1.098
 2867SOL    HW2 9226   4.665   1.468   1.236
 2868SOL     OW 9227   4.540   1.397   0.937
 2868SOL    HW1 9228   4.630   1.384   0.895
 2868SOL    HW2 9229   4.470   1.395   0.865
 2869SOL     OW 9230   4.653   0.506   0.900
 2869SOL    HW1 9231   4.628   0.498   0.804
 2869SOL    HW2 9232   4.683   0.418   0.935
 2870SOL     OW 9233   4.274   0.065   0.507
 2870SOL    HW1 9234   4.187   0.067   0.556
 2870SOL    HW2 9235   4.276   0.139   0.439
 2871SOL     OW 9236   4.651   0.243   0.455
 2871SOL    HW1 9237   4.621   0.292   0.373
 2871SOL    HW2 9238   4.751   0.234   0.455
 2872SOL     OW 9239   4.806   0.668   1.460
 2872SOL    HW1 9240   4.716   0.625   1.463
 2872SOL    HW2 9241   4.874   0.603   1.427
 2873SOL     OW 9242   4.951   1.564   0.782
 2873SOL    HW1 9243   4.959   1.640   0.718
 2873SOL    HW2 9244   5.011   1.580   0.860
 2874SOL     OW 9245   4.188   1.150   0.738
 2874SOL    HW1 9246   4.125   1.130   0.813
 2874SOL    HW2 9247   4.141   1.136   0.651
 2875SOL     OW 9248   4.974   1.795   0.632
 2875SOL    HW1 9249   5.032   1.849   0.571
 2875SOL    HW2 9250   4.900   1.853   0.667
 2876SOL     OW 9251   4.766   0.514   0.043
 2876SOL    HW1 9252   4.741   0.596  -0.009
 2876SOL    HW2 9253   4.830   0.539   0.115
 2877SOL     OW 9254   3.802   0.560   1.390
 2877SOL    HW1 9255   3.896   0.552   1.358
 2877SOL    HW2 9256   3.797   0.629   1.462
 2878SOL     OW 9257   4.322   0.240   1.184
 2878SOL    HW1 9258   4.351   0.157   1.231
 2878SOL    HW2 9259   4.224   0.254   1.200
 2879SOL     OW 9260   4.599   0.458   0.635
 2879SOL    HW1 9261   4.547   0.523   0.579
 2879SOL    HW2 9262   4.607   0.371   0.586
 2880SOL     OW 9263   4.710   0.052   0.778
 2880SOL    HW1 9264   4.643   0.051   0.704
 2880SOL    HW2 9265   4.763  -0.033   0.776
 2881SOL     OW 9266   4.206   1.417   0.156
 2881SOL    HW1 9267   4.133   1.395   0.221
 2881SOL    HW2 9268   4.177   1.391   0.064
 2882SOL     OW 9269   4.257   0.260   0.319
 2882SOL    HW1 9270   4.312   0.213   0.250
 2882SOL    HW2 9271   4.227   0.348   0.283
 2883SOL     OW 9272   4.770   1.375   1.333
 2883SOL    HW1 9273   4.705   1.322   1.388
 2883SOL    HW2 9274   4.862   1.338   1.345
 2884SOL     OW 9275   4.768   1.204   1.099
 2884SOL    HW1 9276   4.798   1.260   1.176
 2884SOL    HW2 9277   4.790   1.250   1.013
 2885SOL     OW 9278   4.633   0.090   1.401
 2885SOL    HW1 9279   4.656   0.079   1.304
 2885SOL    HW2 9280   4.710   0.130   1.449
 2886SOL     OW 9281   4.704   1.118   1.714
 2886SOL    HW1 9282   4.611   1.133   1.746
 2886SOL    HW2 9283   4.708   1.032   1.663
 2887SOL     OW 9284   4.434   1.056   0.376
 2887SOL    HW1 9285   4.411   1.048   0.473
 2887SOL    HW2 9286   4.519   1.006   0.357
 2888SOL     OW 9287   4.138   0.809   1.253
 2888SOL    HW1 9288   4.214   0.823   1.317
 2888SOL    HW2 9289   4.101   0.716   1.266
 2889SOL     OW 9290   3.791   1.568   1.349
 2889SOL    HW1 9291   3.753   1.643   1.295
 2889SOL    HW2 9292   3.891   1.573   1.347
 2890SOL     OW 9293   4.065   1.111   0.496
 2890SOL    HW1 9294   4.083   1.186   0.433
 2890SOL    HW2 9295   4.098   1.025   0.457
 2891SOL     OW 9296   4.267   0.554   0.867
 2891SOL    HW1 9297   4.288   0.610   0.787
 2891SOL    HW2 9298   4.338   0.568   0.936
 2892SOL     OW 9299   4.976   1.375   0.363
 2892SOL    HW1 9300   5.038   1.408   0.435
 2892SOL    HW2 9301   4.883   1.374   0.398
 2893SOL     OW 9302   4.082   1.515   1.321
 2893SOL    HW1 9303   4.057   1.482   1.229
 2893SOL    HW2 9304   4.180   1.532   1.325
 2894SOL     OW 9305   4.123   0.746   1.596
 2894SOL    HW1 9306   4.189   0.801   1.545
 2894SOL    HW2 9307   4.168   0.666   1.634
 2895SOL     OW 9308   4.716   0.126   1.757
 2895SOL    HW1 9309   4.783   0.187   1.716
 2895SOL    HW2 9310   4.741   0.031   1.739
 2896SOL     OW 9311   4.207   0.041   1.735
 2896SOL    HW1 9312   4.185   0.016   1.641
 2896SOL    HW2 9313   4.147   0.116   1.764
 2897SOL     OW 9314   4.328   0.864   1.040
 2897SOL    HW1 9315   4.347   0.961   1.022
 2897SOL    HW2 9316   4.250   0.856   1.103
 2898SOL     OW 9317   4.936   0.552   0.259
 2898SOL    HW1 9318   4.962   0.466   0.301
 2898SOL    HW2 9319   4.885   0.608   0.325
 2899SOL     OW 9320   3.767   1.307   1.279
 2899SOL    HW1 9321   3.805   1.250   1.351
 2899SOL    HW2 9322   3.778   1.403   1.303
 2900SOL     OW 9323   4.454   0.628   1.056
 2900SOL    HW1 9324   4.529   0.609   0.993
 2900SOL    HW2 9325   4.420   0.721   1.040
 2901SOL     OW 9326   4.024   0.070   0.623
 2901SOL    HW1 9327   4.011   0.164   0.655
 2901SOL    HW2 9328   4.071   0.017   0.694
 2902SOL     OW 9329   4.741   0.758   0.957
 2902SOL    HW1 9330   4.753   0.782   1.054
 2902SOL    HW2 9331   4.721   0.660   0.950
 2903SOL     OW 9332   4.694   1.563   1.710
 2903SOL    HW1 9333   4.685   1.611   1.622
 2903SOL    HW2 9334   4.753   1.483   1.698
 2904SOL     OW 9335   4.791   1.339   0.848
 2904SOL    HW1 9336   4.794   1.257   0.791
 2904SOL    HW2 9337   4.855   1.407   0.811
 2905SOL     OW 9338   4.052   0.496   1.018
 2905SOL    HW1 9339   4.023   0.406   0.986
 2905SOL    HW2 9340   4.129   0.528   0.964
 2906SOL     OW 9341   4.869   0.383   1.688
 2906SOL    HW1 9342   4.809   0.437   1.747
 2906SOL    HW2 9343   4.951   0.436   1.667
 2907SOL     OW 9344   4.876   0.218   1.471
 2907SOL    HW1 9345   4.868   0.281   1.549
 2907SOL    HW2 9346   4.869   0.270   1.386
 2908SOL     OW 9347   3.693   1.337   0.254
 2908SOL    HW1 9348   3.612   1.344   0.195
 2908SOL    HW2 9349   3.729   1.243   0.249
 2909SOL     OW 9350   3.805   1.789   0.923
 2909SOL    HW1 9351   3.766   1.704   0.888
 2909SOL    HW2 9352   3.904   1.788   0.912
 2910SOL     OW 9353   4.221   1.568   0.909
 2910SOL    HW1 9354   4.281   1.645   0.930
 2910SOL    HW2 9355   4.267   1.505   0.847
 2911SOL     OW 9356   4.713   0.796   1.230
 2911SOL    HW1 9357   4.766   0.765   1.310
 2911SOL    HW2 9358   4.621   0.758   1.235
 2912SOL     OW 9359   3.766   0.552   1.117
 2912SOL    HW1 9360   3.853   0.539   1.070
 2912SOL    HW2 9361   3.781   0.552   1.215
 2913SOL     OW 9362   3.910   0.520   1.728
 2913SOL    HW1 9363   3.976   0.476   1.667
 2913SOL    HW2 9364   3.869   0.598   1.680
 2914SOL     OW 9365   4.536   0.570   0.358
 2914SOL    HW1 9366   4.548   0.492   0.296
 2914SOL    HW2 9367   4.458   0.624   0.327
 2915SOL     OW 9368   3.968   1.550   1.728
 2915SOL    HW1 9369   3.945   1.622   1.793
 2915SOL    HW2 9370   3.971   1.462   1.775
 2916SOL     OW 9371   4.427   0.471   1.268
 2916SOL    HW1 9372   4.387   0.383   1.243
 2916SOL    HW2 9373   4.427   0.532   1.188
 2917SOL     OW 9374   4.651   1.687   1.467
 2917SOL    HW1 9375   4.625   1.639   1.384
 2917SOL    HW2 9376   4.644   1.786   1.452
 2918SOL     OW 9377   4.178   0.487   0.212
 2918SOL    HW1 9378   4.253   0.551   0.200
 2918SOL    HW2 9379   4.092   0.532   0.187
 2919SOL     OW 9380   3.867   1.139   1.480
 2919SOL    HW1 9381   3.871   1.095   1.569
 2919SOL    HW2 9382   3.884   1.072   1.408
 2920SOL     OW 9383   4.946   1.709   1.090
 2920SOL    HW1 9384   5.031   1.761   1.085
 2920SOL    HW2 9385   4.959   1.630   1.150
 2921SOL     OW 9386   3.799   1.285   1.005
 2921SOL    HW1 9387   3.793   1.288   1.105
 2921SOL    HW2 9388   3.749   1.206   0.971
 2922SOL     OW 9389   4.403   1.669   1.729
 2922SOL    HW1 9390   4.347   1.751   1.725
 2922SOL    HW2 9391   4.469   1.670   1.654
 2923SOL     OW 9392   4.693   0.113   0.116
 2923SOL    HW1 9393   4.695   0.085   0.020
 2923SOL    HW2 9394   4.702   0.032   0.174
 2924SOL     OW 9395   3.860   1.784   1.841
 2924SOL    HW1 9396   3.805   1.718   1.893
 2924SOL    HW2 9397   3.905   1.847   1.905
 2925SOL     OW 9398   4.537   1.270   1.436
 2925SOL    HW1 9399   4.514   1.307   1.526
 2925SOL    HW2 9400   4.473   1.306   1.368
 2926SOL     OW 9401   4.405   1.601   0.162
 2926SOL    HW1 9402   4.402   1.636   0.068
 2926SOL    HW2 9403   4.339   1.526   0.172
 2927SOL     OW 9404   3.982   0.316   0.720
 2927SOL    HW1 9405   3.900   0.358   0.683
 2927SOL    HW2 9406   3.974   0.309   0.819
 2928SOL     OW 9407   4.549   1.007   1.371
 2928SOL    HW1 9408   4.605   0.996   1.289
 2928SOL    HW2 9409   4.550   1.104   1.398
 2929SOL     OW 9410   4.657   0.922   0.326
 2929SOL    HW1 9411   4.670   0.941   0.229
 2929SOL    HW2 9412   4.704   0.837   0.350
 2930SOL     OW 9413   4.092   1.298   1.490
 2930SOL    HW1 9414   4.088   1.379   1.432
 2930SOL    HW2 9415   4.010   1.242   1.476
 2931SOL     OW 9416   4.782   1.101   0.711
 2931SOL    HW1 9417   4.710   1.056   0.764
 2931SOL    HW2 9418   4.802   1.047   0.629
 2932SOL     OW 9419   4.725   0.247   0.975
 2932SOL    HW1 9420   4.722   0.195   0.890
 2932SOL    HW2 9421   4.727   0.184   1.052
 2933SOL     OW 9422   4.321   1.485   0.478
 2933SOL    HW1 9423   4.369   1.435   0.406
 2933SOL    HW2 9424   4.264   1.556   0.437
 2934SOL     OW 9425   3.982   1.355   0.304
 2934SOL    HW1 9426   3.889   1.366   0.268
 2934SOL    HW2 9427   3.987   1.392   0.396
 2935SOL     OW 9428   3.834   1.021   1.723
 2935SOL    HW1 9429   3.746   1.001   1.767
 2935SOL    HW2 9430   3.906   0.969   1.769
 2936SOL     OW 9431   4.396   0.215   1.499
 2936SOL    HW1 9432   4.475   0.173   1.454
 2936SOL    HW2 9433   4.419   0.237   1.593
 2937SOL     OW 9434   3.793   0.182   0.335
 2937SOL    HW1 9435   3.787   0.272   0.292
 2937SOL    HW2 9436   3.889   0.155   0.342
 2938SOL     OW 9437   4.343   0.833   1.430
 2938SOL    HW1 9438   4.402   0.912   1.414
 2938SOL    HW2 9439   4.399   0.752   1.444
 2939SOL     OW 9440   4.446   0.564   1.707
 2939SOL    HW1 9441   4.478   0.627   1.778
 2939SOL    HW2 9442   4.471   0.471   1.732
 2940SOL     OW 9443   4.104   1.742   1.565
 2940SOL    HW1 9444   4.016   1.786   1.548
 2940SOL    HW2 9445   4.089   1.651   1.603
 2941SOL     OW 9446   4.314   0.740   0.664
 2941SOL    HW1 9447   4.358   0.828   0.651
 2941SOL    HW2 9448   4.242   0.728   0.595
 2942SOL     OW 9449   4.577   1.364   0.026
 2942SOL    HW1 9450   4.544   1.371   0.120
 2942SOL    HW2 9451   4.621   1.450  -0.000
 2943SOL     OW 9452   4.382   1.793   0.942
 2943SOL    HW1 9453   4.362   1.883   0.904
 2943SOL    HW2 9454   4.481   1.776   0.937
 2944SOL     OW 9455   4.593   0.969   0.854
 2944SOL    HW1 9456   4.642   0.891   0.893
 2944SOL    HW2 9457   4.552   1.023   0.928
 2945SOL     OW 9458   3.950   1.308   1.857
 2945SOL    HW1 9459   3.875   1.248   1.830
 2945SOL    HW2 9460   3.942   1.329   1.955
 2946SOL     OW 9461   3.806   1.236   0.662
 2946SOL    HW1 9462   3.793   1.186   0.748
 2946SOL    HW2 9463   3.880   1.193   0.609
 2947SOL     OW 9464   4.398   1.406   1.627
 2947SOL    HW1 9465   4.320   1.354   1.661
 2947SOL    HW2 9466   4.399   1.496   1.670
 2948SOL     OW 9467   4.154   0.433   0.523
 2948SOL    HW1 9468   4.192   0.363   0.462
 2948SOL    HW2 9469   4.111   0.388   0.602
 2949SOL     OW 9470   4.050   0.551   1.289
 2949SOL    HW1 9471   4.108   0.499   1.351
 2949SOL    HW2 9472   4.070   0.524   1.194
 2950SOL     OW 9473   4.549   1.581   0.681
 2950SOL    HW1 9474   4.545   1.623   0.590
 2950SOL    HW2 9475   4.470   1.520   0.692
 2951SOL     OW 9476   4.718   5.026   1.151
 2951SOL    HW1 9477   4.662   4.954   1.110
 2951SOL    HW2 9478   4.812   4.994   1.159
 2952SOL     OW 9479   4.502   1.322   0.304
 2952SOL    HW1 9480   4.465   1.231   0.326
 2952SOL    HW2 9481   4.583   1.339   0.360
 2953SOL     OW 9482   4.346   1.569   1.293
 2953SOL    HW1 9483   4.353   1.654   1.344
 2953SOL    HW2 9484   4.433   1.553   1.244
 2954SOL     OW 9485   4.596   1.648   0.354
 2954SOL    HW1 9486   4.526   1.628   0.286
 2954SOL    HW2 9487   4.570   1.731   0.405
 2955SOL     OW 9488   3.950   0.619   1.981
 2955SOL    HW1 9489   3.858   0.623   2.021
 2955SOL    HW2 9490   3.944   0.591   1.886
 2956SOL     OW 9491   3.935   0.292   2.855
 2956SOL    HW1 9492   3.971   0.251   2.938
 2956SOL    HW2 9493   3.846   0.252   2.834
 2957SOL     OW 9494   3.734   0.388   2.497
 2957SOL    HW1 9495   3.645   0.410   2.537
 2957SOL    HW2 9496   3.724   0.310   2.435
 2958SOL     OW 9497   4.839   0.727   2.558
 2958SOL    HW1 9498   4.934   0.754   2.572
 2958SOL    HW2 9499   4.790   0.731   2.645
 2959SOL     OW 9500   4.474   1.144   2.896
 2959SOL    HW1 9501   4.406   1.170   2.964
 2959SOL    HW2 9502   4.515   1.226   2.856
 2960SOL     OW 9503   4.587   0.775   3.681
 2960SOL    HW1 9504   4.569   0.844   3.750
 2960SOL    HW2 9505   4.610   0.819   3.594
 2961SOL     OW 9506   4.411   1.006   2.515
 2961SOL    HW1 9507   4.482   0.987   2.582
 2961SOL    HW2 9508   4.338   1.059   2.557
 2962SOL     OW 9509   4.435   1.154   3.670
 2962SOL    HW1 9510   4.485   1.236   3.700
 2962SOL    HW2 9511   4.344   1.181   3.637
 2963SOL     OW 9512   4.044   1.436   2.927
 2963SOL    HW1 9513   3.973   1.394   2.871
 2963SOL    HW2 9514   4.107   1.486   2.868
 2964SOL     OW 9515   4.173   0.392   3.334
 2964SOL    HW1 9516   4.253   0.335   3.354
 2964SOL    HW2 9517   4.090   0.343   3.359
 2965SOL     OW 9518   3.946   1.715   2.331
 2965SOL    HW1 9519   3.966   1.792   2.392
 2965SOL    HW2 9520   4.023   1.699   2.270
 2966SOL     OW 9521   4.863   1.340   3.558
 2966SOL    HW1 9522   4.914   1.339   3.644
 2966SOL    HW2 9523   4.802   1.261   3.554
 2967SOL     OW 9524   3.949   1.440   2.398
 2967SOL    HW1 9525   3.941   1.540   2.399
 2967SOL    HW2 9526   3.885   1.401   2.465
 2968SOL     OW 9527   3.967   1.096   2.726
 2968SOL    HW1 9528   3.974   1.005   2.766
 2968SOL    HW2 9529   3.917   1.156   2.788
 2969SOL     OW 9530   4.340   1.797   3.301
 2969SOL    HW1 9531   4.251   1.772   3.341
 2969SOL    HW2 9532   4.358   1.893   3.319
 2970SOL     OW 9533   4.371   0.955   1.987
 2970SOL    HW1 9534   4.381   1.024   1.915
 2970SOL    HW2 9535   4.381   0.999   2.076
 2971SOL     OW 9536   3.837   0.654   2.423
 2971SOL    HW1 9537   3.808   0.560   2.439
 2971SOL    HW2 9538   3.830   0.707   2.507
 2972SOL     OW 9539   3.748   1.597   1.991
 2972SOL    HW1 9540   3.735   1.498   2.004
 2972SOL    HW2 9541   3.723   1.645   2.075
 2973SOL     OW 9542   3.845   0.745   3.446
 2973SOL    HW1 9543   3.942   0.763   3.461
 2973SOL    HW2 9544   3.793   0.829   3.456
 2974SOL     OW 9545   4.336   1.386   2.595
 2974SOL    HW1 9546   4.289   1.299   2.607
 2974SOL    HW2 9547   4.322   1.418   2.501
 2975SOL     OW 9548   4.547   0.025   2.425
 2975SOL    HW1 9549   4.578   0.112   2.387
 2975SOL    HW2 9550   4.448   0.017   2.413
 2976SOL     OW 9551   4.052   0.259   3.662
 2976SOL    HW1 9552   4.117   0.323   3.703
 2976SOL    HW2 9553   3.962   0.270   3.706
 2977SOL     OW 9554   4.322   0.721   2.129
 2977SOL    HW1 9555   4.335   0.800   2.069
 2977SOL    HW2 9556   4.248   0.740   2.193
 2978SOL     OW 9557   4.523   0.620   3.319
 2978SOL    HW1 9558   4.495   0.596   3.412
 2978SOL    HW2 9559   4.484   0.554   3.254
 2979SOL     OW 9560   4.689   0.887   3.438
 2979SOL    HW1 9561   4.740   0.808   3.405
 2979SOL    HW2 9562   4.632   0.923   3.364
 2980SOL     OW 9563   4.713   0.399   3.121
 2980SOL    HW1 9564   4.619   0.425   3.144
 2980SOL    HW2 9565   4.717   0.372   3.025
 2981SOL     OW 9566   4.766   0.695   2.289
 2981SOL    HW1 9567   4.785   0.702   2.387
 2981SOL    HW2 9568   4.680   0.645   2.276
 2982SOL     OW 9569   3.812   0.824   2.635
 2982SOL    HW1 9570   3.898   0.806   2.683
 2982SOL    HW2 9571   3.767   0.903   2.677
 2983SOL     OW 9572   3.852   1.847   3.439
 2983SOL    HW1 9573   3.853   1.821   3.535
 2983SOL    HW2 9574   3.758   1.843   3.405
 2984SOL     OW 9575   4.617   0.344   2.064
 2984SOL    HW1 9576   4.657   0.404   1.994
 2984SOL    HW2 9577   4.577   0.264   2.021
 2985SOL     OW 9578   4.262   0.205   2.753
 2985SOL    HW1 9579   4.276   0.216   2.851
 2985SOL    HW2 9580   4.282   0.292   2.706
 2986SOL     OW 9581   4.727   1.444   2.336
 2986SOL    HW1 9582   4.684   1.518   2.284
 2986SOL    HW2 9583   4.714   1.460   2.434
 2987SOL     OW 9584   4.081   1.806   2.714
 2987SOL    HW1 9585   4.117   1.714   2.730
 2987SOL    HW2 9586   4.151   1.873   2.737
 2988SOL     OW 9587   4.944   1.551   3.389
 2988SOL    HW1 9588   4.931   1.478   3.456
 2988SOL    HW2 9589   4.892   1.529   3.306
 2989SOL     OW 9590   4.191   1.263   3.603
 2989SOL    HW1 9591   4.161   1.274   3.508
 2989SOL    HW2 9592   4.111   1.256   3.662
 2990SOL     OW 9593   4.830   1.744   2.111
 2990SOL    HW1 9594   4.748   1.704   2.152
 2990SOL    HW2 9595   4.826   1.735   2.012
 2991SOL     OW 9596   3.930   0.282   3.378
 2991SOL    HW1 9597   3.845   0.327   3.351
 2991SOL    HW2 9598   3.919   0.240   3.469
 2992SOL     OW 9599   4.194   1.720   2.201
 2992SOL    HW1 9600   4.230   1.794   2.257
 2992SOL    HW2 9601   4.254   1.705   2.122
 2993SOL     OW 9602   4.661   1.707   2.756
 2993SOL    HW1 9603   4.734   1.657   2.802
 2993SOL    HW2 9604   4.620   1.650   2.686
 2994SOL     OW 9605   4.113   0.694   2.343
 2994SOL    HW1 9606   4.144   0.599   2.350
 2994SOL    HW2 9607   4.015   0.698   2.360
 2995SOL     OW 9608   4.379   0.150   1.934
 2995SOL    HW1 9609   4.414   0.099   2.012
 2995SOL    HW2 9610   4.308   0.096   1.888
 2996SOL     OW 9611   4.498   0.288   3.618
 2996SOL    HW1 9612   4.579   0.229   3.618
 2996SOL    HW2 9613   4.434   0.258   3.688
 2997SOL     OW 9614   4.598   1.508   3.059
 2997SOL    HW1 9615   4.583   1.482   2.964
 2997SOL    HW2 9616   4.679   1.460   3.095
 2998SOL     OW 9617   4.540   1.392   2.797
 2998SOL    HW1 9618   4.632   1.381   2.758
 2998SOL    HW2 9619   4.472   1.395   2.724
 2999SOL     OW 9620   4.651   0.506   2.764
 2999SOL    HW1 9621   4.626   0.498   2.668
 2999SOL    HW2 9622   4.684   0.418   2.798
 3000SOL     OW 9623   4.283   0.068   2.374
 3000SOL    HW1 9624   4.198   0.068   2.427
 3000SOL    HW2 9625   4.284   0.145   2.311
 3001SOL     OW 9626   4.655   0.249   2.321
 3001SOL    HW1 9627   4.628   0.292   2.235
 3001SOL    HW2 9628   4.753   0.230   2.319
 3002SOL     OW 9629   4.805   0.668   3.320
 3002SOL    HW1 9630   4.717   0.622   3.324
 3002SOL    HW2 9631   4.876   0.604   3.290
 3003SOL     OW 9632   4.946   1.561   2.648
 3003SOL    HW1 9633   4.960   1.635   2.582
 3003SOL    HW2 9634   5.033   1.539   2.693
 3004SOL     OW 9635   4.191   1.150   2.590
 3004SOL    HW1 9636   4.115   1.134   2.652
 3004SOL    HW2 9637   4.164   1.128   2.497
 3005SOL     OW 9638   4.987   1.789   2.504
 3005SOL    HW1 9639   5.026   1.806   2.414
 3005SOL    HW2 9640   4.912   1.853   2.521
 3006SOL     OW 9641   4.756   0.547   1.883
 3006SOL    HW1 9642   4.706   0.632   1.863
 3006SOL    HW2 9643   4.816   0.562   1.961
 3007SOL     OW 9644   3.798   0.560   3.253
 3007SOL    HW1 9645   3.892   0.548   3.221
 3007SOL    HW2 9646   3.795   0.631   3.323
 3008SOL     OW 9647   4.597   0.460   2.500
 3008SOL    HW1 9648   4.546   0.523   2.441
 3008SOL    HW2 9649   4.610   0.373   2.451
 3009SOL     OW 9650   4.709   0.052   2.639
 3009SOL    HW1 9651   4.644   0.050   2.563
 3009SOL    HW2 9652   4.766  -0.030   2.637
 3010SOL     OW 9653   4.216   1.425   2.022
 3010SOL    HW1 9654   4.133   1.403   2.074
 3010SOL    HW2 9655   4.208   1.387   1.930
 3011SOL     OW 9656   4.789   1.359   3.205
 3011SOL    HW1 9657   4.703   1.325   3.243
 3011SOL    HW2 9658   4.866   1.317   3.253
 3012SOL     OW 9659   4.629   0.090   3.265
 3012SOL    HW1 9660   4.650   0.077   3.168
 3012SOL    HW2 9661   4.708   0.131   3.311
 3013SOL     OW 9662   4.704   1.115   3.578
 3013SOL    HW1 9663   4.610   1.135   3.606
 3013SOL    HW2 9664   4.705   1.033   3.520
 3014SOL     OW 9665   4.439   1.060   2.239
 3014SOL    HW1 9666   4.422   1.045   2.336
 3014SOL    HW2 9667   4.517   1.005   2.209
 3015SOL     OW 9668   4.170   0.783   3.107
 3015SOL    HW1 9669   4.230   0.804   3.184
 3015SOL    HW2 9670   4.110   0.707   3.132
 3016SOL     OW 9671   3.799   1.573   3.207
 3016SOL    HW1 9672   3.762   1.644   3.147
 3016SOL    HW2 9673   3.899   1.574   3.204
 3017SOL     OW 9674   4.282   0.538   2.723
 3017SOL    HW1 9675   4.293   0.598   2.643
 3017SOL    HW2 9676   4.346   0.567   2.795
 3018SOL     OW 9677   4.976   1.397   2.223
 3018SOL    HW1 9678   5.039   1.426   2.296
 3018SOL    HW2 9679   4.883   1.392   2.259
 3019SOL     OW 9680   4.077   1.509   3.181
 3019SOL    HW1 9681   4.057   1.476   3.089
 3019SOL    HW2 9682   4.172   1.537   3.187
 3020SOL     OW 9683   4.135   0.746   3.463
 3020SOL    HW1 9684   4.203   0.794   3.407
 3020SOL    HW2 9685   4.171   0.656   3.489
 3021SOL     OW 9686   4.716   0.125   3.624
 3021SOL    HW1 9687   4.778   0.184   3.572
 3021SOL    HW2 9688   4.738   0.030   3.605
 3022SOL     OW 9689   4.204   0.039   3.614
 3022SOL    HW1 9690   4.178   0.010   3.522
 3022SOL    HW2 9691   4.148   0.117   3.641
 3023SOL     OW 9692   4.305   0.866   2.886
 3023SOL    HW1 9693   4.340   0.960   2.890
 3023SOL    HW2 9694   4.252   0.847   2.968
 3024SOL     OW 9695   4.925   0.546   2.117
 3024SOL    HW1 9696   4.963   0.467   2.164
 3024SOL    HW2 9697   4.881   0.607   2.183
 3025SOL     OW 9698   3.775   1.309   3.138
 3025SOL    HW1 9699   3.804   1.252   3.216
 3025SOL    HW2 9700   3.784   1.406   3.163
 3026SOL     OW 9701   4.450   0.631   2.918
 3026SOL    HW1 9702   4.527   0.609   2.859
 3026SOL    HW2 9703   4.416   0.723   2.896
 3027SOL     OW 9704   4.031   0.074   2.486
 3027SOL    HW1 9705   4.015   0.167   2.519
 3027SOL    HW2 9706   4.069   0.019   2.560
 3028SOL     OW 9707   4.737   0.759   2.823
 3028SOL    HW1 9708   4.752   0.779   2.919
 3028SOL    HW2 9709   4.721   0.660   2.812
 3029SOL     OW 9710   4.693   1.561   3.574
 3029SOL    HW1 9711   4.683   1.608   3.486
 3029SOL    HW2 9712   4.756   1.484   3.563
 3030SOL     OW 9713   4.077   0.925   3.665
 3030SOL    HW1 9714   4.148   0.932   3.735
 3030SOL    HW2 9715   4.104   0.856   3.597
 3031SOL     OW 9716   4.793   1.337   2.709
 3031SOL    HW1 9717   4.796   1.256   2.650
 3031SOL    HW2 9718   4.850   1.409   2.670
 3032SOL     OW 9719   4.041   0.790   2.781
 3032SOL    HW1 9720   4.136   0.820   2.784
 3032SOL    HW2 9721   4.031   0.703   2.830
 3033SOL     OW 9722   4.064   0.522   2.876
 3033SOL    HW1 9723   4.016   0.437   2.857
 3033SOL    HW2 9724   4.142   0.532   2.815
 3034SOL     OW 9725   4.869   0.389   3.548
 3034SOL    HW1 9726   4.809   0.441   3.608
 3034SOL    HW2 9727   4.953   0.441   3.532
 3035SOL     OW 9728   4.863   0.216   3.341
 3035SOL    HW1 9729   4.862   0.283   3.416
 3035SOL    HW2 9730   4.871   0.264   3.254
 3036SOL     OW 9731   3.721   1.321   2.055
 3036SOL    HW1 9732   3.633   1.339   2.012
 3036SOL    HW2 9733   3.721   1.230   2.096
 3037SOL     OW 9734   3.812   1.794   2.792
 3037SOL    HW1 9735   3.776   1.709   2.754
 3037SOL    HW2 9736   3.910   1.802   2.772
 3038SOL     OW 9737   4.221   1.573   2.766
 3038SOL    HW1 9738   4.290   1.640   2.794
 3038SOL    HW2 9739   4.264   1.504   2.709
 3039SOL     OW 9740   4.708   0.800   3.096
 3039SOL    HW1 9741   4.765   0.767   3.171
 3039SOL    HW2 9742   4.620   0.754   3.098
 3040SOL     OW 9743   3.759   0.546   2.979
 3040SOL    HW1 9744   3.842   0.527   2.927
 3040SOL    HW2 9745   3.781   0.553   3.076
 3041SOL     OW 9746   3.911   0.524   3.588
 3041SOL    HW1 9747   3.972   0.473   3.527
 3041SOL    HW2 9748   3.868   0.599   3.538
 3042SOL     OW 9749   4.536   0.569   2.219
 3042SOL    HW1 9750   4.546   0.490   2.159
 3042SOL    HW2 9751   4.459   0.624   2.188
 3043SOL     OW 9752   3.967   1.549   3.592
 3043SOL    HW1 9753   3.946   1.621   3.658
 3043SOL    HW2 9754   3.970   1.461   3.638
 3044SOL     OW 9755   4.433   0.459   3.125
 3044SOL    HW1 9756   4.362   0.388   3.120
 3044SOL    HW2 9757   4.424   0.521   3.047
 3045SOL     OW 9758   4.649   1.683   3.331
 3045SOL    HW1 9759   4.626   1.637   3.245
 3045SOL    HW2 9760   4.643   1.782   3.318
 3046SOL     OW 9761   4.184   0.494   2.049
 3046SOL    HW1 9762   4.251   0.566   2.072
 3046SOL    HW2 9763   4.095   0.536   2.033
 3047SOL     OW 9764   3.869   1.130   3.337
 3047SOL    HW1 9765   3.871   1.086   3.427
 3047SOL    HW2 9766   3.891   1.063   3.266
 3048SOL     OW 9767   4.925   1.706   2.974
 3048SOL    HW1 9768   4.993   1.752   2.917
 3048SOL    HW2 9769   4.967   1.626   3.018
 3049SOL     OW 9770   3.802   1.275   2.866
 3049SOL    HW1 9771   3.794   1.286   2.966
 3049SOL    HW2 9772   3.730   1.213   2.834
 3050SOL     OW 9773   4.402   1.668   3.590
 3050SOL    HW1 9774   4.343   1.749   3.587
 3050SOL    HW2 9775   4.468   1.671   3.515
 3051SOL     OW 9776   3.863   1.792   3.704
 3051SOL    HW1 9777   3.812   1.725   3.759
 3051SOL    HW2 9778   3.914   1.853   3.765
 3052SOL     OW 9779   4.543   1.277   3.293
 3052SOL    HW1 9780   4.518   1.311   3.383
 3052SOL    HW2 9781   4.480   1.314   3.225
 3053SOL     OW 9782   4.399   1.620   2.013
 3053SOL    HW1 9783   4.413   1.633   1.915
 3053SOL    HW2 9784   4.341   1.541   2.029
 3054SOL     OW 9785   3.987   0.323   2.580
 3054SOL    HW1 9786   3.898   0.358   2.551
 3054SOL    HW2 9787   3.988   0.312   2.679
 3055SOL     OW 9788   4.546   1.010   3.237
 3055SOL    HW1 9789   4.600   0.993   3.154
 3055SOL    HW2 9790   4.549   1.107   3.259
 3056SOL     OW 9791   4.652   0.915   2.159
 3056SOL    HW1 9792   4.710   0.940   2.081
 3056SOL    HW2 9793   4.689   0.834   2.204
 3057SOL     OW 9794   4.084   1.309   3.368
 3057SOL    HW1 9795   4.084   1.385   3.303
 3057SOL    HW2 9796   4.006   1.249   3.349
 3058SOL     OW 9797   4.783   1.097   2.576
 3058SOL    HW1 9798   4.708   1.051   2.623
 3058SOL    HW2 9799   4.812   1.043   2.498
 3059SOL     OW 9800   4.724   0.246   2.838
 3059SOL    HW1 9801   4.722   0.196   2.751
 3059SOL    HW2 9802   4.723   0.181   2.914
 3060SOL     OW 9803   4.323   1.488   2.343
 3060SOL    HW1 9804   4.371   1.433   2.274
 3060SOL    HW2 9805   4.260   1.551   2.298
 3061SOL     OW 9806   3.969   1.381   2.136
 3061SOL    HW1 9807   3.872   1.369   2.117
 3061SOL    HW2 9808   3.981   1.403   2.233
 3062SOL     OW 9809   3.836   1.025   3.586
 3062SOL    HW1 9810   3.755   0.997   3.638
 3062SOL    HW2 9811   3.918   0.985   3.627
 3063SOL     OW 9812   4.395   0.219   3.358
 3063SOL    HW1 9813   4.472   0.172   3.315
 3063SOL    HW2 9814   4.418   0.236   3.454
 3064SOL     OW 9815   3.802   0.339   1.902
 3064SOL    HW1 9816   3.715   0.305   1.867
 3064SOL    HW2 9817   3.834   0.415   1.845
 3065SOL     OW 9818   3.786   0.207   2.208
 3065SOL    HW1 9819   3.779   0.269   2.130
 3065SOL    HW2 9820   3.858   0.140   2.192
 3066SOL     OW 9821   4.347   0.832   3.303
 3066SOL    HW1 9822   4.403   0.913   3.284
 3066SOL    HW2 9823   4.406   0.753   3.312
 3067SOL     OW 9824   4.444   0.561   3.565
 3067SOL    HW1 9825   4.478   0.628   3.632
 3067SOL    HW2 9826   4.468   0.469   3.596
 3068SOL     OW 9827   4.106   1.740   3.429
 3068SOL    HW1 9828   4.017   1.784   3.412
 3068SOL    HW2 9829   4.091   1.648   3.465
 3069SOL     OW 9830   4.313   0.739   2.529
 3069SOL    HW1 9831   4.358   0.828   2.515
 3069SOL    HW2 9832   4.240   0.728   2.462
 3070SOL     OW 9833   4.573   1.371   1.887
 3070SOL    HW1 9834   4.547   1.396   1.981
 3070SOL    HW2 9835   4.605   1.452   1.839
 3071SOL     OW 9836   4.386   1.792   2.804
 3071SOL    HW1 9837   4.367   1.887   2.780
 3071SOL    HW2 9838   4.485   1.776   2.805
 3072SOL     OW 9839   4.591   0.967   2.718
 3072SOL    HW1 9840   4.640   0.889   2.757
 3072SOL    HW2 9841   4.553   1.023   2.792
 3073SOL     OW 9842   3.950   1.305   3.721
 3073SOL    HW1 9843   3.884   1.236   3.692
 3073SOL    HW2 9844   3.944   1.319   3.820
 3074SOL     OW 9845   3.799   1.238   2.526
 3074SOL    HW1 9846   3.806   1.185   2.611
 3074SOL    HW2 9847   3.868   1.207   2.461
 3075SOL     OW 9848   4.402   1.403   3.490
 3075SOL    HW1 9849   4.323   1.352   3.524
 3075SOL    HW2 9850   4.401   1.495   3.528
 3076SOL     OW 9851   4.163   0.432   2.388
 3076SOL    HW1 9852   4.164   0.373   2.308
 3076SOL    HW2 9853   4.109   0.390   2.460
 3077SOL     OW 9854   4.044   0.543   3.152
 3077SOL    HW1 9855   4.103   0.489   3.212
 3077SOL    HW2 9856   4.070   0.527   3.057
 3078SOL     OW 9857   4.550   1.577   2.541
 3078SOL    HW1 9858   4.546   1.622   2.452
 3078SOL    HW2 9859   4.469   1.520   2.553
 3079SOL     OW 9860   4.706   5.027   3.013
 3079SOL    HW1 9861   4.647   4.960   2.970
 3079SOL    HW2 9862   4.800   4.992   3.018
 3080SOL     OW 9863   4.495   1.333   2.178
 3080SOL    HW1 9864   4.461   1.239   2.181
 3080SOL    HW2 9865   4.584   1.338   2.223
 3081SOL     OW 9866   4.345   1.569   3.154
 3081SOL    HW1 9867   4.351   1.655   3.205
 3081SOL    HW2 9868   4.433   1.550   3.111
 3082SOL     OW 9869   3.752   1.077   2.178
 3082SOL    HW1 9870   3.850   1.084   2.158
 3082SOL    HW2 9871   3.729   0.981   2.196
 3083SOL     OW 9872   4.596   1.649   2.210
 3083SOL    HW1 9873   4.525   1.628   2.143
 3083SOL    HW2 9874   4.569   1.730   2.263
 3084SOL     OW 9875   3.952   0.616   3.845
 3084SOL    HW1 9876   3.860   0.623   3.885
 3084SOL    HW2 9877   3.944   0.590   3.749
 3085SOL     OW 9878   3.950   0.282   4.724
 3085SOL    HW1 9879   3.976   0.235   4.809
 3085SOL    HW2 9880   3.855   0.259   4.701
 3086SOL     OW 9881   3.730   0.383   4.360
 3086SOL    HW1 9882   3.645   0.412   4.403
 3086SOL    HW2 9883   3.714   0.301   4.304
 3087SOL     OW 9884   4.282   1.273   4.877
 3087SOL    HW1 9885   4.199   1.314   4.840
 3087SOL    HW2 9886   4.344   1.346   4.908
 3088SOL     OW 9887   4.842   0.727   4.417
 3088SOL    HW1 9888   4.937   0.757   4.427
 3088SOL    HW2 9889   4.796   0.730   4.506
 3089SOL     OW 9890   4.483   1.140   4.760
 3089SOL    HW1 9891   4.404   1.172   4.812
 3089SOL    HW2 9892   4.526   1.218   4.714
 3090SOL     OW 9893   4.411   1.008   4.376
 3090SOL    HW1 9894   4.481   0.988   4.444
 3090SOL    HW2 9895   4.337   1.061   4.418
 3091SOL     OW 9896   4.069   1.420   4.791
 3091SOL    HW1 9897   3.982   1.390   4.751
 3091SOL    HW2 9898   4.115   1.482   4.727
 3092SOL     OW 9899   0.241   1.508   0.061
 3092SOL    HW1 9900   0.172   1.580   0.071
 3092SOL    HW2 9901   0.238   1.448   0.141
 3093SOL     OW 9902   3.944   1.710   4.196
 3093SOL    HW1 9903   3.964   1.788   4.255
 3093SOL    HW2 9904   4.022   1.694   4.135
 3094SOL     OW 9905   3.951   1.439   4.261
 3094SOL    HW1 9906   3.941   1.538   4.258
 3094SOL    HW2 9907   3.885   1.400   4.325
 3095SOL     OW 9908   3.985   1.085   4.613
 3095SOL    HW1 9909   3.981   0.994   4.654
 3095SOL    HW2 9910   3.924   1.147   4.663
 3096SOL     OW 9911   4.333   0.970   3.851
 3096SOL    HW1 9912   4.369   1.031   3.780
 3096SOL    HW2 9913   4.359   1.005   3.941
 3097SOL     OW 9914   3.839   0.654   4.285
 3097SOL    HW1 9915   3.810   0.560   4.300
 3097SOL    HW2 9916   3.830   0.705   4.371
 3098SOL     OW 9917   3.754   1.599   3.853
 3098SOL    HW1 9918   3.737   1.501   3.862
 3098SOL    HW2 9919   3.726   1.645   3.937
 3099SOL     OW 9920   4.332   1.387   4.454
 3099SOL    HW1 9921   4.286   1.299   4.467
 3099SOL    HW2 9922   4.319   1.418   4.360
 3100SOL     OW 9923   4.542   0.027   4.289
 3100SOL    HW1 9924   4.567   0.115   4.248
 3100SOL    HW2 9925   4.449   0.003   4.263
 3101SOL     OW 9926   4.321   0.725   3.992
 3101SOL    HW1 9927   4.327   0.805   3.932
 3101SOL    HW2 9928   4.246   0.739   4.058
 3102SOL     OW 9929   4.766   0.693   4.151
 3102SOL    HW1 9930   4.786   0.701   4.248
 3102SOL    HW2 9931   4.680   0.645   4.137
 3103SOL     OW 9932   3.815   0.823   4.502
 3103SOL    HW1 9933   3.899   0.810   4.554
 3103SOL    HW2 9934   3.765   0.901   4.538
 3104SOL     OW 9935   4.620   0.344   3.926
 3104SOL    HW1 9936   4.657   0.403   3.855
 3104SOL    HW2 9937   4.578   0.264   3.884
 3105SOL     OW 9938   4.282   0.203   4.618
 3105SOL    HW1 9939   4.264   0.221   4.714
 3105SOL    HW2 9940   4.282   0.289   4.567
 3106SOL     OW 9941   4.720   1.447   4.203
 3106SOL    HW1 9942   4.680   1.521   4.149
 3106SOL    HW2 9943   4.706   1.466   4.301
 3107SOL     OW 9944   4.082   1.808   4.584
 3107SOL    HW1 9945   4.124   1.717   4.593
 3107SOL    HW2 9946   4.152   1.878   4.598
 3108SOL     OW 9947   4.833   1.741   3.965
 3108SOL    HW1 9948   4.748   1.706   4.004
 3108SOL    HW2 9949   4.828   1.739   3.865
 3109SOL     OW 9950   4.198   1.717   4.071
 3109SOL    HW1 9951   4.214   1.808   4.109
 3109SOL    HW2 9952   4.252   1.705   3.987
 3110SOL     OW 9953   3.951   1.739   4.944
 3110SOL    HW1 9954   4.006   1.678   5.001
 3110SOL    HW2 9955   3.960   1.712   4.848
 3111SOL     OW 9956   4.659   1.702   4.625
 3111SOL    HW1 9957   4.742   1.654   4.654
 3111SOL    HW2 9958   4.614   1.650   4.552
 3112SOL     OW 9959   4.115   0.692   4.206
 3112SOL    HW1 9960   4.144   0.596   4.212
 3112SOL    HW2 9961   4.016   0.698   4.221
 3113SOL     OW 9962   4.365   0.157   3.805
 3113SOL    HW1 9963   4.401   0.105   3.882
 3113SOL    HW2 9964   4.298   0.101   3.756
 3114SOL     OW 9965   4.531   1.389   4.649
 3114SOL    HW1 9966   4.623   1.387   4.609
 3114SOL    HW2 9967   4.463   1.387   4.576
 3115SOL     OW 9968   4.654   0.511   4.625
 3115SOL    HW1 9969   4.629   0.498   4.529
 3115SOL    HW2 9970   4.687   0.424   4.663
 3116SOL     OW 9971   4.653   0.248   4.182
 3116SOL    HW1 9972   4.626   0.292   4.096
 3116SOL    HW2 9973   4.752   0.232   4.181
 3117SOL     OW 9974   4.944   1.575   4.523
 3117SOL    HW1 9975   4.960   1.642   4.450
 3117SOL    HW2 9976   5.032   1.539   4.554
 3118SOL     OW 9977   4.190   1.150   4.454
 3118SOL    HW1 9978   4.119   1.130   4.522
 3118SOL    HW2 9979   4.157   1.125   4.363
 3119SOL     OW 9980   4.982   1.787   4.359
 3119SOL    HW1 9981   5.026   1.812   4.273
 3119SOL    HW2 9982   4.917   1.858   4.385
 3120SOL     OW 9983   4.756   0.548   3.744
 3120SOL    HW1 9984   4.702   0.630   3.726
 3120SOL    HW2 9985   4.815   0.564   3.823
 3121SOL     OW 9986   4.598   0.460   4.361
 3121SOL    HW1 9987   4.546   0.523   4.304
 3121SOL    HW2 9988   4.610   0.373   4.313
 3122SOL     OW 9989   4.709   0.050   4.500
 3122SOL    HW1 9990   4.643   0.052   4.425
 3122SOL    HW2 9991   4.763  -0.034   4.495
 3123SOL     OW 9992   4.216   1.418   3.883
 3123SOL    HW1 9993   4.135   1.392   3.936
 3123SOL    HW2 9994   4.207   1.385   3.789
 3124SOL     OW 9995   4.817   1.224   4.810
 3124SOL    HW1 9996   4.754   1.243   4.885
 3124SOL    HW2 9997   4.782   1.265   4.726
 3125SOL     OW 9998   4.438   1.060   4.098
 3125SOL    HW1 9999   4.421   1.045   4.196
 3125SOL    HW210000   4.516   1.005   4.069
 3126SOL     OW10001   4.275   0.541   4.589
 3126SOL    HW110002   4.291   0.598   4.509
 3126SOL    HW210003   4.342   0.564   4.660
 3127SOL     OW10004   4.969   1.390   4.117
 3127SOL    HW110005   5.033   1.432   4.180
 3127SOL    HW210006   4.877   1.396   4.154
 3128SOL     OW10007   4.308   0.877   4.757
 3128SOL    HW110008   4.349   0.967   4.741
 3128SOL    HW210009   4.264   0.876   4.847
 3129SOL     OW10010   0.045   0.867   4.748
 3129SOL    HW110011  -0.042   0.828   4.717
 3129SOL    HW210012   0.112   0.794   4.761
 3130SOL     OW10013   4.928   0.550   3.980
 3130SOL    HW110014   4.958   0.467   4.026
 3130SOL    HW210015   4.882   0.610   4.046
 3131SOL     OW10016   3.798   1.326  -0.020
 3131SOL    HW110017   3.799   1.272   0.064
 3131SOL    HW210018   3.794   1.423   0.002
 3132SOL     OW10019   4.451   0.630   4.776
 3132SOL    HW110020   4.530   0.605   4.719
 3132SOL    HW210021   4.422   0.723   4.754
 3133SOL     OW10022   4.009   0.059   4.376
 3133SOL    HW110023   4.012   0.158   4.392
 3133SOL    HW210024   4.079   0.014   4.431
 3134SOL     OW10025   4.751   0.757   4.687
 3134SOL    HW110026   4.750   0.773   4.785
 3134SOL    HW210027   4.725   0.663   4.668
 3135SOL     OW10028   0.288   0.265   3.889
 3135SOL    HW110029   0.190   0.272   3.870
 3135SOL    HW210030   0.315   0.340   3.950
 3136SOL     OW10031   4.781   1.341   4.560
 3136SOL    HW110032   4.792   1.258   4.506
 3136SOL    HW210033   4.850   1.408   4.534
 3137SOL     OW10034   4.037   0.809   4.678
 3137SOL    HW110035   4.134   0.832   4.669
 3137SOL    HW210036   4.027   0.712   4.700
 3138SOL     OW10037   4.041   0.533   4.722
 3138SOL    HW110038   4.010   0.438   4.722
 3138SOL    HW210039   4.128   0.539   4.672
 3139SOL     OW10040   3.719   1.313   3.923
 3139SOL    HW110041   3.631   1.340   3.885
 3139SOL    HW210042   3.727   1.214   3.922
 3140SOL     OW10043   3.816   1.794   4.654
 3140SOL    HW110044   3.779   1.710   4.615
 3140SOL    HW210045   3.912   1.804   4.626
 3141SOL     OW10046   4.226   1.577   4.630
 3141SOL    HW110047   4.297   1.642   4.655
 3141SOL    HW210048   4.265   1.506   4.571
 3142SOL     OW10049   4.713   0.773   4.957
 3142SOL    HW110050   4.764   0.818   5.030
 3142SOL    HW210051   4.615   0.781   4.974
 3143SOL     OW10052   3.770   0.550   4.838
 3143SOL    HW110053   3.847   0.528   4.778
 3143SOL    HW210054   3.801   0.561   4.932
 3144SOL     OW10055   4.535   0.569   4.080
 3144SOL    HW110056   4.544   0.490   4.020
 3144SOL    HW210057   4.458   0.626   4.050
 3145SOL     OW10058   4.402   0.482   5.003
 3145SOL    HW110059   4.390   0.383   4.989
 3145SOL    HW210060   4.421   0.525   4.915
 3146SOL     OW10061   4.190   0.497   3.905
 3146SOL    HW110062   4.252   0.570   3.933
 3146SOL    HW210063   4.098   0.534   3.894
 3147SOL     OW10064   3.810   1.103   0.214
 3147SOL    HW110065   3.863   1.073   0.293
 3147SOL    HW210066   3.856   1.074   0.129
 3148SOL     OW10067   4.938   1.717   4.854
 3148SOL    HW110068   5.020   1.758   4.814
 3148SOL    HW210069   4.965   1.655   4.928
 3149SOL     OW10070   3.811   1.265   4.721
 3149SOL    HW110071   3.801   1.285   4.818
 3149SOL    HW210072   3.734   1.207   4.691
 3150SOL     OW10073   4.399   1.617   3.875
 3150SOL    HW110074   4.411   1.630   3.776
 3150SOL    HW210075   4.341   1.536   3.890
 3151SOL     OW10076   3.990   0.324   4.443
 3151SOL    HW110077   3.899   0.355   4.414
 3151SOL    HW210078   3.990   0.311   4.542
 3152SOL     OW10079   4.627   1.038   0.071
 3152SOL    HW110080   4.615   1.037  -0.028
 3152SOL    HW210081   4.587   1.122   0.108
 3153SOL     OW10082   4.647   0.913   4.022
 3153SOL    HW110083   4.697   0.937   3.939
 3153SOL    HW210084   4.691   0.834   4.066
 3154SOL     OW10085   4.780   1.098   4.436
 3154SOL    HW110086   4.707   1.050   4.484
 3154SOL    HW210087   4.811   1.043   4.358
 3155SOL     OW10088   4.741   0.247   4.687
 3155SOL    HW110089   4.729   0.186   4.608
 3155SOL    HW210090   4.726   0.195   4.771
 3156SOL     OW10091   4.324   1.489   4.204
 3156SOL    HW110092   4.370   1.433   4.135
 3156SOL    HW210093   4.261   1.552   4.158
 3157SOL     OW10094   3.970   1.370   4.000
 3157SOL    HW110095   3.872   1.359   3.982
 3157SOL    HW210096   3.984   1.393   4.096
 3158SOL     OW10097   3.805   0.333   3.747
 3158SOL    HW110098   3.706   0.322   3.735
 3158SOL    HW210099   3.836   0.413   3.697
 3159SOL     OW10100   4.312   0.741   4.393
 3159SOL    HW110101   4.357   0.829   4.375
 3159SOL    HW210102   4.240   0.726   4.325
 3160SOL     OW10103   4.580   1.368   3.752
 3160SOL    HW110104   4.544   1.396   3.841
 3160SOL    HW210105   4.606   1.450   3.700
 3161SOL     OW10106   4.389   1.795   4.677
 3161SOL    HW110107   4.365   1.887   4.648
 3161SOL    HW210108   4.486   1.779   4.660
 3162SOL     OW10109   4.591   0.964   4.581
 3162SOL    HW110110   4.644   0.889   4.619
 3162SOL    HW210111   4.557   1.022   4.655
 3163SOL     OW10112   4.781   0.970   3.796
 3163SOL    HW110113   4.762   1.033   3.721
 3163SOL    HW210114   4.872   0.931   3.784
 3164SOL     OW10115   3.798   1.236   4.387
 3164SOL    HW110116   3.799   1.186   4.474
 3164SOL    HW210117   3.873   1.203   4.329
 3165SOL     OW10118   4.164   0.431   4.249
 3165SOL    HW110119   4.174   0.365   4.174
 3165SOL    HW210120   4.109   0.390   4.322
 3166SOL     OW10121   4.544   1.585   4.405
 3166SOL    HW110122   4.544   1.620   4.311
 3166SOL    HW210123   4.468   1.521   4.416
 3167SOL     OW10124   4.724   5.008   4.870
 3167SOL    HW110125   4.651   4.958   4.824
 3167SOL    HW210126   4.812   4.983   4.831
 3168SOL     OW10127   4.494   1.333   4.040
 3168SOL    HW110128   4.459   1.239   4.042
 3168SOL    HW210129   4.583   1.336   4.086
 3169SOL     OW10130   4.597   1.651   4.070
 3169SOL    HW110131   4.526   1.628   4.003
 3169SOL    HW210132   4.570   1.733   4.121
 3170SOL     OW10133   3.959   2.504   0.105
 3170SOL    HW110134   3.875   2.502   0.158
 3170SOL    HW210135   3.959   2.429   0.039
 3171SOL     OW10136   3.725   2.241   0.634
 3171SOL    HW110137   3.642   2.272   0.682
 3171SOL    HW210138   3.706   2.155   0.586
 3172SOL     OW10139   4.842   2.585   0.694
 3172SOL    HW110140   4.936   2.616   0.707
 3172SOL    HW210141   4.792   2.592   0.781
 3173SOL     OW10142   4.452   3.000   1.023
 3173SOL    HW110143   4.404   3.027   1.107
 3173SOL    HW210144   4.513   3.073   0.995
 3174SOL     OW10145   4.583   2.638   1.817
 3174SOL    HW110146   4.582   2.708   1.889
 3174SOL    HW210147   4.609   2.681   1.730
 3175SOL     OW10148   4.411   2.867   0.651
 3175SOL    HW110149   4.480   2.852   0.721
 3175SOL    HW210150   4.336   2.921   0.689
 3176SOL     OW10151   4.430   3.018   1.808
 3176SOL    HW110152   4.482   3.098   1.837
 3176SOL    HW210153   4.342   3.046   1.771
 3177SOL     OW10154   4.012   3.369   1.057
 3177SOL    HW110155   3.955   3.300   1.013
 3177SOL    HW210156   4.092   3.388   1.001
 3178SOL     OW10157   4.172   2.253   1.468
 3178SOL    HW110158   4.250   2.195   1.490
 3178SOL    HW210159   4.088   2.207   1.496
 3179SOL     OW10160   3.945   3.571   0.478
 3179SOL    HW110161   3.967   3.653   0.532
 3179SOL    HW210162   4.015   3.558   0.407
 3180SOL     OW10163   4.858   3.200   1.691
 3180SOL    HW110164   4.902   3.206   1.781
 3180SOL    HW210165   4.800   3.119   1.687
 3181SOL     OW10166   3.960   3.293   0.528
 3181SOL    HW110167   3.945   3.392   0.523
 3181SOL    HW210168   3.890   3.251   0.586
 3182SOL     OW10169   4.340   3.655   1.442
 3182SOL    HW110170   4.250   3.636   1.480
 3182SOL    HW210171   4.361   3.752   1.452
 3183SOL     OW10172   4.305   2.832   0.142
 3183SOL    HW110173   4.332   2.888   0.064
 3183SOL    HW210174   4.351   2.865   0.224
 3184SOL     OW10175   3.852   2.491   0.575
 3184SOL    HW110176   3.803   2.406   0.594
 3184SOL    HW210177   3.837   2.555   0.651
 3185SOL     OW10178   3.765   3.433   0.127
 3185SOL    HW110179   3.752   3.353   0.186
 3185SOL    HW210180   3.732   3.515   0.174
 3186SOL     OW10181   3.844   2.602   1.587
 3186SOL    HW110182   3.942   2.618   1.598
 3186SOL    HW210183   3.795   2.689   1.593
 3187SOL     OW10184   4.336   3.246   0.734
 3187SOL    HW110185   4.290   3.158   0.745
 3187SOL    HW210186   4.321   3.280   0.641
 3188SOL     OW10187   4.538   1.865   0.509
 3188SOL    HW110188   4.578   1.955   0.488
 3188SOL    HW210189   4.439   1.874   0.518
 3189SOL     OW10190   3.914   2.819   1.282
 3189SOL    HW110191   4.002   2.777   1.262
 3189SOL    HW210192   3.842   2.773   1.231
 3190SOL     OW10193   4.326   2.591   0.275
 3190SOL    HW110194   4.332   2.675   0.221
 3190SOL    HW210195   4.254   2.601   0.344
 3191SOL     OW10196   4.521   2.482   1.455
 3191SOL    HW110197   4.495   2.459   1.549
 3191SOL    HW210198   4.481   2.416   1.392
 3192SOL     OW10199   4.686   2.749   1.576
 3192SOL    HW110200   4.741   2.672   1.543
 3192SOL    HW210201   4.633   2.787   1.500
 3193SOL     OW10202   4.714   2.260   1.255
 3193SOL    HW110203   4.623   2.290   1.284
 3193SOL    HW210204   4.709   2.224   1.162
 3194SOL     OW10205   4.770   2.550   0.426
 3194SOL    HW110206   4.788   2.559   0.523
 3194SOL    HW210207   4.683   2.504   0.412
 3195SOL     OW10208   3.817   2.679   0.778
 3195SOL    HW110209   3.902   2.673   0.831
 3195SOL    HW210210   3.763   2.756   0.811
 3196SOL     OW10211   3.853   3.714   1.582
 3196SOL    HW110212   3.849   3.685   1.677
 3196SOL    HW210213   3.763   3.704   1.539
 3197SOL     OW10214   4.605   2.213   0.207
 3197SOL    HW110215   4.632   2.274   0.133
 3197SOL    HW210216   4.604   2.118   0.174
 3198SOL     OW10217   4.305   2.054   0.872
 3198SOL    HW110218   4.284   2.060   0.970
 3198SOL    HW210219   4.309   2.146   0.833
 3199SOL     OW10220   4.717   3.300   0.474
 3199SOL    HW110221   4.683   3.380   0.425
 3199SOL    HW210222   4.714   3.318   0.572
 3200SOL     OW10223   4.082   3.666   0.855
 3200SOL    HW110224   4.118   3.574   0.866
 3200SOL    HW210225   4.153   3.733   0.879
 3201SOL     OW10226   4.945   3.409   1.532
 3201SOL    HW110227   4.928   3.330   1.591
 3201SOL    HW210228   4.901   3.395   1.443
 3202SOL     OW10229   4.056   2.807   0.263
 3202SOL    HW110230   4.139   2.824   0.209
 3202SOL    HW210231   4.008   2.727   0.227
 3203SOL     OW10232   4.185   3.125   1.737
 3203SOL    HW110233   4.149   3.136   1.644
 3203SOL    HW210234   4.113   3.088   1.796
 3204SOL     OW10235   4.793   3.648   0.228
 3204SOL    HW110236   4.745   3.585   0.288
 3204SOL    HW210237   4.856   3.598   0.169
 3205SOL     OW10238   3.925   2.157   1.532
 3205SOL    HW110239   3.847   2.199   1.487
 3205SOL    HW210240   3.900   2.065   1.564
 3206SOL     OW10241   4.199   3.585   0.329
 3206SOL    HW110242   4.232   3.652   0.395
 3206SOL    HW210243   4.270   3.568   0.261
 3207SOL     OW10244   3.968   3.639   1.230
 3207SOL    HW110245   4.035   3.586   1.281
 3207SOL    HW210246   3.959   3.602   1.138
 3208SOL     OW10247   4.661   3.565   0.899
 3208SOL    HW110248   4.740   3.513   0.931
 3208SOL    HW210249   4.615   3.514   0.826
 3209SOL     OW10250   4.117   2.553   0.476
 3209SOL    HW110251   4.147   2.458   0.487
 3209SOL    HW210252   4.022   2.562   0.504
 3210SOL     OW10253   4.360   1.932   0.119
 3210SOL    HW110254   4.459   1.945   0.127
 3210SOL    HW210255   4.330   1.960   0.028
 3211SOL     OW10256   4.492   2.144   1.757
 3211SOL    HW110257   4.571   2.082   1.756
 3211SOL    HW210258   4.432   2.120   1.833
 3212SOL     OW10259   4.599   3.377   1.194
 3212SOL    HW110260   4.579   3.343   1.102
 3212SOL    HW210261   4.675   3.325   1.233
 3213SOL     OW10262   4.533   3.261   0.937
 3213SOL    HW110263   4.623   3.250   0.895
 3213SOL    HW210264   4.462   3.256   0.866
 3214SOL     OW10265   4.650   2.370   0.902
 3214SOL    HW110266   4.627   2.363   0.805
 3214SOL    HW210267   4.676   2.280   0.937
 3215SOL     OW10268   4.272   1.926   0.498
 3215SOL    HW110269   4.191   1.927   0.557
 3215SOL    HW210270   4.278   2.013   0.449
 3216SOL     OW10271   4.656   2.106   0.459
 3216SOL    HW110272   4.614   2.155   0.383
 3216SOL    HW210273   4.746   2.072   0.432
 3217SOL     OW10274   4.805   2.533   1.459
 3217SOL    HW110275   4.718   2.484   1.463
 3217SOL    HW210276   4.878   2.469   1.433
 3218SOL     OW10277   4.949   3.431   0.790
 3218SOL    HW110278   4.961   3.501   0.720
 3218SOL    HW210279   5.037   3.413   0.834
 3219SOL     OW10280   4.193   3.010   0.731
 3219SOL    HW110281   4.129   2.986   0.804
 3219SOL    HW210282   4.151   2.991   0.642
 3220SOL     OW10283   4.982   3.661   0.638
 3220SOL    HW110284   5.026   3.704   0.560
 3220SOL    HW210285   4.903   3.717   0.667
 3221SOL     OW10286   4.767   2.375   0.039
 3221SOL    HW110287   4.739   2.457  -0.010
 3221SOL    HW210288   4.825   2.400   0.116
 3222SOL     OW10289   3.802   2.421   1.389
 3222SOL    HW110290   3.897   2.415   1.359
 3222SOL    HW210291   3.794   2.491   1.460
 3223SOL     OW10292   4.597   2.321   0.637
 3223SOL    HW110293   4.545   2.384   0.580
 3223SOL    HW210294   4.614   2.236   0.586
 3224SOL     OW10295   4.742   1.914   0.744
 3224SOL    HW110296   4.674   1.910   0.672
 3224SOL    HW210297   4.725   1.841   0.810
 3225SOL     OW10298   4.793   3.217   1.343
 3225SOL    HW110299   4.709   3.188   1.390
 3225SOL    HW210300   4.873   3.181   1.391
 3226SOL     OW10301   4.724   3.084   1.113
 3226SOL    HW110302   4.767   3.128   1.193
 3226SOL    HW210303   4.767   3.118   1.030
 3227SOL     OW10304   4.643   1.961   1.401
 3227SOL    HW110305   4.660   1.937   1.306
 3227SOL    HW210306   4.726   2.002   1.440
 3228SOL     OW10307   4.705   2.974   1.720
 3228SOL    HW110308   4.611   2.998   1.744
 3228SOL    HW210309   4.706   2.894   1.660
 3229SOL     OW10310   4.435   2.921   0.372
 3229SOL    HW110311   4.408   2.911   0.468
 3229SOL    HW210312   4.520   2.870   0.356
 3230SOL     OW10313   4.145   2.674   1.251
 3230SOL    HW110314   4.217   2.689   1.319
 3230SOL    HW210315   4.102   2.586   1.266
 3231SOL     OW10316   3.792   3.433   1.348
 3231SOL    HW110317   3.754   3.506   1.292
 3231SOL    HW210318   3.892   3.438   1.346
 3232SOL     OW10319   4.076   2.967   0.493
 3232SOL    HW110320   4.076   3.053   0.443
 3232SOL    HW210321   4.069   2.891   0.429
 3233SOL     OW10322   4.275   2.401   0.864
 3233SOL    HW110323   4.287   2.458   0.783
 3233SOL    HW210324   4.341   2.428   0.934
 3234SOL     OW10325   4.975   3.258   0.366
 3234SOL    HW110326   5.039   3.280   0.439
 3234SOL    HW210327   4.885   3.240   0.404
 3235SOL     OW10328   4.079   3.378   1.318
 3235SOL    HW110329   4.050   3.363   1.223
 3235SOL    HW210330   4.178   3.393   1.320
 3236SOL     OW10331   4.137   2.603   1.596
 3236SOL    HW110332   4.203   2.651   1.538
 3236SOL    HW210333   4.174   2.513   1.621
 3237SOL     OW10334   4.716   1.987   1.760
 3237SOL    HW110335   4.778   2.058   1.726
 3237SOL    HW210336   4.752   1.897   1.734
 3238SOL     OW10337   4.224   1.905   1.746
 3238SOL    HW110338   4.183   1.846   1.676
 3238SOL    HW210339   4.167   1.987   1.758
 3239SOL     OW10340   4.306   2.733   1.030
 3239SOL    HW110341   4.343   2.825   1.023
 3239SOL    HW210342   4.247   2.727   1.111
 3240SOL     OW10343   0.058   2.701   1.065
 3240SOL    HW110344  -0.029   2.711   1.016
 3240SOL    HW210345   0.078   2.604   1.078
 3241SOL     OW10346   4.931   2.397   0.270
 3241SOL    HW110347   4.996   2.349   0.329
 3241SOL    HW210348   4.880   2.463   0.325
 3242SOL     OW10349   3.766   3.172   1.283
 3242SOL    HW110350   3.804   3.111   1.354
 3242SOL    HW210351   3.778   3.267   1.311
 3243SOL     OW10352   4.447   2.492   1.055
 3243SOL    HW110353   4.526   2.471   0.998
 3243SOL    HW210354   4.415   2.585   1.037
 3244SOL     OW10355   4.034   1.924   0.631
 3244SOL    HW110356   4.012   2.019   0.653
 3244SOL    HW210357   4.038   1.870   0.716
 3245SOL     OW10358   4.748   2.621   0.963
 3245SOL    HW110359   4.750   2.642   1.061
 3245SOL    HW210360   4.726   2.524   0.950
 3246SOL     OW10361   4.692   3.422   1.710
 3246SOL    HW110362   4.683   3.473   1.624
 3246SOL    HW210363   4.755   3.346   1.696
 3247SOL     OW10364   4.081   2.771   1.799
 3247SOL    HW110365   4.163   2.785   1.855
 3247SOL    HW210366   4.101   2.705   1.726
 3248SOL     OW10367   4.775   3.212   0.834
 3248SOL    HW110368   4.788   3.127   0.783
 3248SOL    HW210369   4.845   3.278   0.807
 3249SOL     OW10370   4.039   2.660   0.936
 3249SOL    HW110371   4.134   2.691   0.941
 3249SOL    HW210372   4.032   2.570   0.979
 3250SOL     OW10373   4.047   2.386   1.007
 3250SOL    HW110374   4.008   2.295   0.990
 3250SOL    HW210375   4.127   2.399   0.949
 3251SOL     OW10376   4.871   2.245   1.686
 3251SOL    HW110377   4.813   2.298   1.748
 3251SOL    HW210378   4.964   2.281   1.690
 3252SOL     OW10379   4.882   2.078   1.472
 3252SOL    HW110380   4.874   2.140   1.550
 3252SOL    HW210381   4.880   2.129   1.387
 3253SOL     OW10382   3.706   3.192   0.246
 3253SOL    HW110383   3.623   3.194   0.191
 3253SOL    HW210384   3.740   3.098   0.253
 3254SOL     OW10385   3.814   3.656   0.932
 3254SOL    HW110386   3.778   3.569   0.897
 3254SOL    HW210387   3.910   3.665   0.907
 3255SOL     OW10388   4.226   3.436   0.903
 3255SOL    HW110389   4.295   3.504   0.928
 3255SOL    HW210390   4.268   3.365   0.847
 3256SOL     OW10391   4.710   2.658   1.230
 3256SOL    HW110392   4.769   2.630   1.306
 3256SOL    HW210393   4.619   2.619   1.243
 3257SOL     OW10394   3.762   2.409   1.117
 3257SOL    HW110395   3.848   2.408   1.067
 3257SOL    HW210396   3.780   2.414   1.216
 3258SOL     OW10397   3.920   2.381   1.731
 3258SOL    HW110398   3.961   2.320   1.663
 3258SOL    HW210399   3.870   2.454   1.684
 3259SOL     OW10400   4.536   2.433   0.357
 3259SOL    HW110401   4.546   2.354   0.295
 3259SOL    HW210402   4.459   2.489   0.327
 3260SOL     OW10403   3.964   3.411   1.732
 3260SOL    HW110404   3.942   3.488   1.793
 3260SOL    HW210405   3.977   3.329   1.787
 3261SOL     OW10406   4.430   2.320   1.263
 3261SOL    HW110407   4.363   2.247   1.255
 3261SOL    HW210408   4.423   2.381   1.185
 3262SOL     OW10409   4.650   3.548   1.468
 3262SOL    HW110410   4.625   3.502   1.383
 3262SOL    HW210411   4.647   3.647   1.454
 3263SOL     OW10412   4.178   2.368   0.223
 3263SOL    HW110413   4.259   2.426   0.222
 3263SOL    HW210414   4.098   2.422   0.197
 3264SOL     OW10415   3.872   2.997   1.476
 3264SOL    HW110416   3.871   2.948   1.563
 3264SOL    HW210417   3.889   2.932   1.402
 3265SOL     OW10418   4.934   3.591   1.128
 3265SOL    HW110419   5.002   3.629   1.065
 3265SOL    HW210420   4.967   3.503   1.163
 3266SOL     OW10421   3.763   3.166   1.009
 3266SOL    HW110422   3.769   3.158   1.109
 3266SOL    HW210423   3.729   3.080   0.971
 3267SOL     OW10424   4.402   3.530   1.728
 3267SOL    HW110425   4.344   3.611   1.725
 3267SOL    HW210426   4.468   3.533   1.653
 3268SOL     OW10427   4.633   1.957   0.118
 3268SOL    HW110428   4.663   1.941   0.024
 3268SOL    HW210429   4.687   1.902   0.181
 3269SOL     OW10430   3.866   3.651   1.847
 3269SOL    HW110431   3.810   3.584   1.896
 3269SOL    HW210432   3.913   3.709   1.912
 3270SOL     OW10433   4.545   3.140   1.434
 3270SOL    HW110434   4.515   3.176   1.523
 3270SOL    HW210435   4.483   3.172   1.363
 3271SOL     OW10436   4.393   3.472   0.161
 3271SOL    HW110437   4.407   3.495   0.065
 3271SOL    HW210438   4.364   3.377   0.169
 3272SOL     OW10439   3.982   2.179   0.707
 3272SOL    HW110440   3.895   2.217   0.675
 3272SOL    HW210441   3.978   2.168   0.806
 3273SOL     OW10442   4.550   2.874   1.371
 3273SOL    HW110443   4.605   2.862   1.288
 3273SOL    HW210444   4.551   2.970   1.398
 3274SOL     OW10445   4.659   2.784   0.325
 3274SOL    HW110446   4.667   2.796   0.226
 3274SOL    HW210447   4.703   2.699   0.352
 3275SOL     OW10448   4.088   3.163   1.494
 3275SOL    HW110449   4.084   3.242   1.432
 3275SOL    HW210450   4.010   3.104   1.477
 3276SOL     OW10451   4.789   2.959   0.718
 3276SOL    HW110452   4.712   2.914   0.764
 3276SOL    HW210453   4.806   2.915   0.630
 3277SOL     OW10454   4.708   2.102   0.975
 3277SOL    HW110455   4.718   2.060   0.885
 3277SOL    HW210456   4.714   2.032   1.046
 3278SOL     OW10457   4.325   3.350   0.485
 3278SOL    HW110458   4.372   3.298   0.413
 3278SOL    HW210459   4.258   3.412   0.443
 3279SOL     OW10460   3.837   2.875   1.716
 3279SOL    HW110461   3.755   2.859   1.772
 3279SOL    HW210462   3.917   2.836   1.762
 3280SOL     OW10463   4.402   2.065   1.499
 3280SOL    HW110464   4.487   2.037   1.453
 3280SOL    HW210465   4.423   2.093   1.593
 3281SOL     OW10466   3.793   2.018   0.321
 3281SOL    HW110467   3.763   2.096   0.266
 3281SOL    HW210468   3.888   1.995   0.298
 3282SOL     OW10469   4.346   2.695   1.430
 3282SOL    HW110470   4.403   2.776   1.416
 3282SOL    HW210471   4.405   2.615   1.443
 3283SOL     OW10472   4.446   2.423   1.703
 3283SOL    HW110473   4.478   2.492   1.768
 3283SOL    HW210474   4.470   2.332   1.736
 3284SOL     OW10475   4.104   3.603   1.566
 3284SOL    HW110476   4.016   3.648   1.551
 3284SOL    HW210477   4.089   3.511   1.601
 3285SOL     OW10478   4.314   2.601   0.666
 3285SOL    HW110479   4.358   2.690   0.655
 3285SOL    HW210480   4.240   2.591   0.599
 3286SOL     OW10481   4.546   3.241   0.027
 3286SOL    HW110482   4.549   3.238   0.127
 3286SOL    HW210483   4.624   3.295  -0.006
 3287SOL     OW10484   4.388   3.654   0.939
 3287SOL    HW110485   4.370   3.751   0.920
 3287SOL    HW210486   4.487   3.638   0.938
 3288SOL     OW10487   4.593   2.829   0.856
 3288SOL    HW110488   4.644   2.753   0.898
 3288SOL    HW210489   4.549   2.883   0.928
 3289SOL     OW10490   3.807   3.098   0.664
 3289SOL    HW110491   3.789   3.044   0.747
 3289SOL    HW210492   3.879   3.054   0.611
 3290SOL     OW10493   4.399   3.265   1.627
 3290SOL    HW110494   4.317   3.217   1.660
 3290SOL    HW210495   4.401   3.357   1.666
 3291SOL     OW10496   4.170   2.292   0.531
 3291SOL    HW110497   4.167   2.244   0.443
 3291SOL    HW210498   4.106   2.249   0.594
 3292SOL     OW10499   4.052   2.417   1.289
 3292SOL    HW110500   4.105   2.360   1.352
 3292SOL    HW210501   4.072   2.390   1.195
 3293SOL     OW10502   4.549   3.443   0.681
 3293SOL    HW110503   4.545   3.487   0.591
 3293SOL    HW210504   4.470   3.383   0.692
 3294SOL     OW10505   4.720   1.877   1.148
 3294SOL    HW110506   4.653   1.813   1.112
 3294SOL    HW210507   4.811   1.837   1.142
 3295SOL     OW10508   4.494   3.189   0.306
 3295SOL    HW110509   4.462   3.096   0.326
 3295SOL    HW210510   4.575   3.209   0.360
 3296SOL     OW10511   4.345   3.430   1.291
 3296SOL    HW110512   4.351   3.515   1.344
 3296SOL    HW210513   4.433   3.413   1.246
 3297SOL     OW10514   4.593   3.509   0.355
 3297SOL    HW110515   4.525   3.496   0.283
 3297SOL    HW210516   4.573   3.593   0.405
 3298SOL     OW10517   3.950   2.494   1.983
 3298SOL    HW110518   3.860   2.480   2.024
 3298SOL    HW210519   3.951   2.457   1.890
 3299SOL     OW10520   3.727   2.241   2.496
 3299SOL    HW110521   3.646   2.278   2.542
 3299SOL    HW210522   3.703   2.155   2.452
 3300SOL     OW10523   4.841   2.584   2.558
 3300SOL    HW110524   4.935   2.618   2.570
 3300SOL    HW210525   4.792   2.592   2.645
 3301SOL     OW10526   4.474   3.005   2.895
 3301SOL    HW110527   4.408   3.032   2.965
 3301SOL    HW210528   4.515   3.087   2.854
 3302SOL     OW10529   4.593   2.640   3.685
 3302SOL    HW110530   4.564   2.709   3.751
 3302SOL    HW210531   4.613   2.684   3.597
 3303SOL     OW10532   4.409   2.869   2.513
 3303SOL    HW110533   4.479   2.852   2.583
 3303SOL    HW210534   4.333   2.920   2.554
 3304SOL     OW10535   4.436   3.015   3.670
 3304SOL    HW110536   4.485   3.097   3.698
 3304SOL    HW210537   4.345   3.040   3.638
 3305SOL     OW10538   4.028   3.341   2.921
 3305SOL    HW110539   3.973   3.279   2.865
 3305SOL    HW210540   4.105   3.375   2.867
 3306SOL     OW10541   4.174   2.262   3.347
 3306SOL    HW110542   4.250   2.199   3.362
 3306SOL    HW210543   4.088   2.215   3.368
 3307SOL     OW10544   3.945   3.578   2.330
 3307SOL    HW110545   3.967   3.653   2.392
 3307SOL    HW210546   4.023   3.559   2.271
 3308SOL     OW10547   4.857   3.200   3.552
 3308SOL    HW110548   4.907   3.205   3.639
 3308SOL    HW210549   4.800   3.118   3.551
 3309SOL     OW10550   3.960   3.296   2.398
 3309SOL    HW110551   3.941   3.394   2.386
 3309SOL    HW210552   3.888   3.254   2.451
 3310SOL     OW10553   4.334   3.662   3.293
 3310SOL    HW110554   4.249   3.636   3.338
 3310SOL    HW210555   4.360   3.754   3.320
 3311SOL     OW10556   4.318   2.843   1.992
 3311SOL    HW110557   4.361   2.897   1.919
 3311SOL    HW210558   4.355   2.871   2.080
 3312SOL     OW10559   3.841   2.515   2.424
 3312SOL    HW110560   3.803   2.424   2.440
 3312SOL    HW210561   3.832   2.569   2.508
 3313SOL     OW10562   3.755   3.459   1.993
 3313SOL    HW110563   3.748   3.360   2.010
 3313SOL    HW210564   3.725   3.509   2.074
 3314SOL     OW10565   3.844   2.605   3.449
 3314SOL    HW110566   3.941   2.624   3.462
 3314SOL    HW210567   3.792   2.691   3.454
 3315SOL     OW10568   4.334   3.245   2.597
 3315SOL    HW110569   4.287   3.158   2.608
 3315SOL    HW210570   4.320   3.278   2.503
 3316SOL     OW10571   4.538   1.864   2.369
 3316SOL    HW110572   4.576   1.955   2.349
 3316SOL    HW210573   4.439   1.873   2.382
 3317SOL     OW10574   4.054   2.112   3.671
 3317SOL    HW110575   4.112   2.189   3.697
 3317SOL    HW210576   3.961   2.129   3.703
 3318SOL     OW10577   4.327   2.598   2.138
 3318SOL    HW110578   4.335   2.674   2.073
 3318SOL    HW210579   4.251   2.617   2.201
 3319SOL     OW10580   4.523   2.481   3.317
 3319SOL    HW110581   4.496   2.459   3.410
 3319SOL    HW210582   4.482   2.415   3.254
 3320SOL     OW10583   4.687   2.749   3.439
 3320SOL    HW110584   4.740   2.671   3.405
 3320SOL    HW210585   4.632   2.786   3.364
 3321SOL     OW10586   4.712   2.255   3.117
 3321SOL    HW110587   4.623   2.288   3.148
 3321SOL    HW210588   4.708   2.233   3.020
 3322SOL     OW10589   4.766   2.556   2.290
 3322SOL    HW110590   4.784   2.563   2.388
 3322SOL    HW210591   4.679   2.507   2.276
 3323SOL     OW10592   3.815   2.685   2.640
 3323SOL    HW110593   3.902   2.675   2.689
 3323SOL    HW210594   3.765   2.763   2.677
 3324SOL     OW10595   3.855   3.712   3.441
 3324SOL    HW110596   3.853   3.685   3.538
 3324SOL    HW210597   3.763   3.703   3.403
 3325SOL     OW10598   4.622   2.208   2.063
 3325SOL    HW110599   4.661   2.273   1.997
 3325SOL    HW210600   4.595   2.124   2.015
 3326SOL     OW10601   4.265   2.048   2.760
 3326SOL    HW110602   4.267   2.069   2.858
 3326SOL    HW210603   4.280   2.132   2.708
 3327SOL     OW10604   4.711   3.302   2.325
 3327SOL    HW110605   4.685   3.388   2.281
 3327SOL    HW210606   4.731   3.319   2.421
 3328SOL     OW10607   4.080   3.670   2.720
 3328SOL    HW110608   4.123   3.580   2.731
 3328SOL    HW210609   4.148   3.741   2.739
 3329SOL     OW10610   4.942   3.413   3.389
 3329SOL    HW110611   4.931   3.336   3.453
 3329SOL    HW210612   4.896   3.392   3.303
 3330SOL     OW10613   4.079   2.770   2.132
 3330SOL    HW110614   4.148   2.807   2.070
 3330SOL    HW210615   4.025   2.700   2.085
 3331SOL     OW10616   4.192   3.117   3.607
 3331SOL    HW110617   4.156   3.133   3.515
 3331SOL    HW210618   4.118   3.124   3.673
 3332SOL     OW10619   4.841   3.622   2.107
 3332SOL    HW110620   4.759   3.583   2.148
 3332SOL    HW210621   4.834   3.618   2.008
 3333SOL     OW10622   3.924   2.165   3.394
 3333SOL    HW110623   3.835   2.194   3.358
 3333SOL    HW210624   3.912   2.081   3.447
 3334SOL     OW10625   4.197   3.578   2.199
 3334SOL    HW110626   4.226   3.655   2.256
 3334SOL    HW210627   4.257   3.571   2.120
 3335SOL     OW10628   3.969   3.645   3.095
 3335SOL    HW110629   4.031   3.584   3.146
 3335SOL    HW210630   3.966   3.617   3.000
 3336SOL     OW10631   4.661   3.565   2.761
 3336SOL    HW110632   4.741   3.513   2.791
 3336SOL    HW210633   4.614   3.515   2.689
 3337SOL     OW10634   4.118   2.549   2.351
 3337SOL    HW110635   4.145   2.453   2.357
 3337SOL    HW210636   4.019   2.557   2.364
 3338SOL     OW10637   4.384   1.985   1.956
 3338SOL    HW110638   4.441   1.910   1.988
 3338SOL    HW210639   4.319   1.950   1.887
 3339SOL     OW10640   4.493   2.144   3.622
 3339SOL    HW110641   4.570   2.080   3.621
 3339SOL    HW210642   4.430   2.118   3.695
 3340SOL     OW10643   4.599   3.376   3.055
 3340SOL    HW110644   4.585   3.343   2.962
 3340SOL    HW210645   4.676   3.326   3.096
 3341SOL     OW10646   4.537   3.254   2.798
 3341SOL    HW110647   4.628   3.245   2.757
 3341SOL    HW210648   4.469   3.256   2.725
 3342SOL     OW10649   4.651   2.369   2.764
 3342SOL    HW110650   4.626   2.364   2.668
 3342SOL    HW210651   4.679   2.279   2.796
 3343SOL     OW10652   4.273   1.924   2.367
 3343SOL    HW110653   4.189   1.921   2.421
 3343SOL    HW210654   4.279   2.011   2.319
 3344SOL     OW10655   4.653   2.108   2.322
 3344SOL    HW110656   4.623   2.154   2.239
 3344SOL    HW210657   4.750   2.084   2.314
 3345SOL     OW10658   4.806   2.532   3.321
 3345SOL    HW110659   4.718   2.484   3.324
 3345SOL    HW210660   4.878   2.470   3.291
 3346SOL     OW10661   4.947   3.433   2.657
 3346SOL    HW110662   4.958   3.503   2.586
 3346SOL    HW210663   5.036   3.409   2.695
 3347SOL     OW10664   4.187   3.006   2.607
 3347SOL    HW110665   4.123   2.979   2.679
 3347SOL    HW210666   4.147   2.987   2.517
 3348SOL     OW10667   4.987   3.655   2.506
 3348SOL    HW110668   5.026   3.671   2.416
 3348SOL    HW210669   4.910   3.718   2.520
 3349SOL     OW10670   4.751   2.407   1.885
 3349SOL    HW110671   4.702   2.491   1.863
 3349SOL    HW210672   4.816   2.425   1.960
 3350SOL     OW10673   3.801   2.423   3.251
 3350SOL    HW110674   3.896   2.416   3.221
 3350SOL    HW210675   3.793   2.493   3.322
 3351SOL     OW10676   4.597   2.321   2.500
 3351SOL    HW110677   4.545   2.385   2.444
 3351SOL    HW210678   4.610   2.236   2.449
 3352SOL     OW10679   4.739   1.916   2.603
 3352SOL    HW110680   4.671   1.908   2.530
 3352SOL    HW210681   4.725   1.843   2.670
 3353SOL     OW10682   4.780   3.231   3.207
 3353SOL    HW110683   4.699   3.190   3.248
 3353SOL    HW210684   4.861   3.181   3.237
 3354SOL     OW10685   4.641   1.956   3.264
 3354SOL    HW110686   4.654   1.931   3.168
 3354SOL    HW210687   4.725   1.999   3.299
 3355SOL     OW10688   4.706   2.972   3.585
 3355SOL    HW110689   4.611   2.995   3.610
 3355SOL    HW210690   4.706   2.892   3.525
 3356SOL     OW10691   4.435   2.923   2.234
 3356SOL    HW110692   4.414   2.909   2.330
 3356SOL    HW210693   4.514   2.868   2.208
 3357SOL     OW10694   4.148   2.677   3.110
 3357SOL    HW110695   4.216   2.690   3.182
 3357SOL    HW210696   4.096   2.594   3.128
 3358SOL     OW10697   3.794   3.435   3.210
 3358SOL    HW110698   3.759   3.510   3.155
 3358SOL    HW210699   3.894   3.440   3.212
 3359SOL     OW10700   4.069   2.955   2.369
 3359SOL    HW110701   4.075   3.038   2.314
 3359SOL    HW210702   4.072   2.875   2.310
 3360SOL     OW10703   4.276   2.401   2.726
 3360SOL    HW110704   4.288   2.459   2.645
 3360SOL    HW210705   4.341   2.430   2.797
 3361SOL     OW10706   4.079   3.393   3.182
 3361SOL    HW110707   4.053   3.362   3.090
 3361SOL    HW210708   4.178   3.404   3.186
 3362SOL     OW10709   4.135   2.609   3.464
 3362SOL    HW110710   4.202   2.655   3.405
 3362SOL    HW210711   4.167   2.517   3.484
 3363SOL     OW10712   4.717   1.986   3.623
 3363SOL    HW110713   4.774   2.056   3.580
 3363SOL    HW210714   4.753   1.895   3.599
 3364SOL     OW10715   4.218   1.906   3.611
 3364SOL    HW110716   4.179   1.847   3.540
 3364SOL    HW210717   4.156   1.983   3.627
 3365SOL     OW10718   4.306   2.730   2.893
 3365SOL    HW110719   4.341   2.824   2.887
 3365SOL    HW210720   4.245   2.723   2.973
 3366SOL     OW10721   0.056   2.704   2.926
 3366SOL    HW110722  -0.024   2.712   2.868
 3366SOL    HW210723   0.080   2.608   2.939
 3367SOL     OW10724   4.925   2.415   2.116
 3367SOL    HW110725   4.958   2.334   2.164
 3367SOL    HW210726   4.878   2.476   2.181
 3368SOL     OW10727   3.755   3.175   3.147
 3368SOL    HW110728   3.803   3.117   3.214
 3368SOL    HW210729   3.775   3.271   3.166
 3369SOL     OW10730   4.448   2.493   2.919
 3369SOL    HW110731   4.525   2.473   2.859
 3369SOL    HW210732   4.414   2.585   2.900
 3370SOL     OW10733   4.026   1.928   2.484
 3370SOL    HW110734   4.005   2.023   2.507
 3370SOL    HW210735   4.035   1.874   2.567
 3371SOL     OW10736   4.747   2.621   2.825
 3371SOL    HW110737   4.750   2.642   2.923
 3371SOL    HW210738   4.725   2.524   2.812
 3372SOL     OW10739   4.693   3.422   3.572
 3372SOL    HW110740   4.682   3.473   3.487
 3372SOL    HW210741   4.755   3.345   3.558
 3373SOL     OW10742   4.075   2.784   3.668
 3373SOL    HW110743   4.149   2.795   3.734
 3373SOL    HW210744   4.102   2.717   3.598
 3374SOL     OW10745   4.779   3.208   2.696
 3374SOL    HW110746   4.795   3.120   2.649
 3374SOL    HW210747   4.850   3.272   2.670
 3375SOL     OW10748   4.042   2.662   2.794
 3375SOL    HW110749   4.137   2.692   2.798
 3375SOL    HW210750   4.028   2.585   2.855
 3376SOL     OW10751   4.056   2.365   2.879
 3376SOL    HW110752   4.009   2.284   2.845
 3376SOL    HW210753   4.133   2.387   2.819
 3377SOL     OW10754   4.868   2.246   3.550
 3377SOL    HW110755   4.810   2.302   3.608
 3377SOL    HW210756   4.953   2.296   3.530
 3378SOL     OW10757   4.873   2.075   3.339
 3378SOL    HW110758   4.869   2.139   3.416
 3378SOL    HW210759   4.882   2.125   3.254
 3379SOL     OW10760   3.726   3.196   2.060
 3379SOL    HW110761   3.634   3.207   2.021
 3379SOL    HW210762   3.750   3.099   2.061
 3380SOL     OW10763   3.815   3.654   2.796
 3380SOL    HW110764   3.779   3.570   2.757
 3380SOL    HW210765   3.911   3.666   2.769
 3381SOL     OW10766   4.226   3.438   2.766
 3381SOL    HW110767   4.296   3.505   2.792
 3381SOL    HW210768   4.268   3.368   2.707
 3382SOL     OW10769   4.709   2.660   3.093
 3382SOL    HW110770   4.769   2.633   3.168
 3382SOL    HW210771   4.619   2.618   3.104
 3383SOL     OW10772   3.761   2.407   2.980
 3383SOL    HW110773   3.847   2.399   2.931
 3383SOL    HW210774   3.779   2.417   3.078
 3384SOL     OW10775   3.917   2.385   3.590
 3384SOL    HW110776   3.958   2.322   3.523
 3384SOL    HW210777   3.870   2.459   3.542
 3385SOL     OW10778   4.535   2.430   2.220
 3385SOL    HW110779   4.542   2.353   2.157
 3385SOL    HW210780   4.460   2.490   2.192
 3386SOL     OW10781   3.968   3.413   3.590
 3386SOL    HW110782   3.944   3.484   3.656
 3386SOL    HW210783   3.973   3.325   3.636
 3387SOL     OW10784   4.431   2.318   3.125
 3387SOL    HW110785   4.358   2.251   3.120
 3387SOL    HW210786   4.423   2.382   3.048
 3388SOL     OW10787   4.645   3.549   3.332
 3388SOL    HW110788   4.628   3.500   3.247
 3388SOL    HW210789   4.645   3.648   3.315
 3389SOL     OW10790   4.194   2.384   2.050
 3389SOL    HW110791   4.253   2.459   2.079
 3389SOL    HW210792   4.102   2.419   2.031
 3390SOL     OW10793   3.879   2.993   3.330
 3390SOL    HW110794   3.878   2.947   3.418
 3390SOL    HW210795   3.891   2.926   3.257
 3391SOL     OW10796   4.934   3.594   2.989
 3391SOL    HW110797   5.002   3.630   2.925
 3391SOL    HW210798   4.967   3.508   3.028
 3392SOL     OW10799   4.402   3.530   3.590
 3392SOL    HW110800   4.344   3.612   3.586
 3392SOL    HW210801   4.470   3.534   3.516
 3393SOL     OW10802   3.863   3.652   3.705
 3393SOL    HW110803   3.811   3.586   3.761
 3393SOL    HW210804   3.911   3.716   3.765
 3394SOL     OW10805   4.540   3.136   3.295
 3394SOL    HW110806   4.514   3.171   3.385
 3394SOL    HW210807   4.478   3.175   3.226
 3395SOL     OW10808   4.396   3.479   2.010
 3395SOL    HW110809   4.407   3.494   1.912
 3395SOL    HW210810   4.363   3.386   2.026
 3396SOL     OW10811   3.981   2.181   2.575
 3396SOL    HW110812   3.894   2.217   2.543
 3396SOL    HW210813   3.972   2.152   2.671
 3397SOL     OW10814   4.548   2.871   3.236
 3397SOL    HW110815   4.601   2.858   3.152
 3397SOL    HW210816   4.548   2.968   3.261
 3398SOL     OW10817   4.644   2.773   2.160
 3398SOL    HW110818   4.697   2.797   2.078
 3398SOL    HW210819   4.688   2.697   2.207
 3399SOL     OW10820   4.080   3.180   3.378
 3399SOL    HW110821   4.080   3.257   3.315
 3399SOL    HW210822   4.007   3.116   3.353
 3400SOL     OW10823   4.788   2.955   2.582
 3400SOL    HW110824   4.709   2.911   2.625
 3400SOL    HW210825   4.807   2.910   2.494
 3401SOL     OW10826   4.717   2.101   2.825
 3401SOL    HW110827   4.720   2.056   2.736
 3401SOL    HW210828   4.747   2.037   2.896
 3402SOL     OW10829   4.326   3.351   2.347
 3402SOL    HW110830   4.373   3.296   2.278
 3402SOL    HW210831   4.261   3.413   2.302
 3403SOL     OW10832   3.837   2.889   3.583
 3403SOL    HW110833   3.755   2.862   3.635
 3403SOL    HW210834   3.918   2.848   3.625
 3404SOL     OW10835   4.402   2.066   3.360
 3404SOL    HW110836   4.487   2.037   3.317
 3404SOL    HW210837   4.419   2.091   3.455
 3405SOL     OW10838   3.774   2.224   1.904
 3405SOL    HW110839   3.699   2.191   1.848
 3405SOL    HW210840   3.835   2.280   1.848
 3406SOL     OW10841   4.344   2.694   3.296
 3406SOL    HW110842   4.401   2.775   3.281
 3406SOL    HW210843   4.403   2.614   3.307
 3407SOL     OW10844   4.450   2.423   3.565
 3407SOL    HW110845   4.478   2.490   3.634
 3407SOL    HW210846   4.470   2.331   3.598
 3408SOL     OW10847   4.106   3.602   3.427
 3408SOL    HW110848   4.019   3.648   3.411
 3408SOL    HW210849   4.089   3.511   3.467
 3409SOL     OW10850   4.317   2.601   2.530
 3409SOL    HW110851   4.358   2.691   2.515
 3409SOL    HW210852   4.242   2.588   2.465
 3410SOL     OW10853   4.575   3.231   1.885
 3410SOL    HW110854   4.560   3.254   1.982
 3410SOL    HW210855   4.606   3.312   1.836
 3411SOL     OW10856   4.386   3.657   2.809
 3411SOL    HW110857   4.364   3.751   2.782
 3411SOL    HW210858   4.485   3.642   2.799
 3412SOL     OW10859   4.589   2.827   2.719
 3412SOL    HW110860   4.641   2.752   2.759
 3412SOL    HW210861   4.553   2.885   2.792
 3413SOL     OW10862   4.781   2.824   1.936
 3413SOL    HW110863   4.763   2.889   1.862
 3413SOL    HW210864   4.877   2.793   1.930
 3414SOL     OW10865   3.943   3.170   3.719
 3414SOL    HW110866   3.891   3.099   3.672
 3414SOL    HW210867   3.898   3.192   3.806
 3415SOL     OW10868   3.805   3.095   2.531
 3415SOL    HW110869   3.781   3.035   2.607
 3415SOL    HW210870   3.877   3.053   2.476
 3416SOL     OW10871   4.398   3.264   3.489
 3416SOL    HW110872   4.321   3.213   3.527
 3416SOL    HW210873   4.399   3.357   3.528
 3417SOL     OW10874   4.171   2.284   2.392
 3417SOL    HW110875   4.156   2.239   2.304
 3417SOL    HW210876   4.106   2.249   2.460
 3418SOL     OW10877   4.052   2.421   3.153
 3418SOL    HW110878   4.104   2.365   3.217
 3418SOL    HW210879   4.069   2.390   3.059
 3419SOL     OW10880   4.543   3.447   2.547
 3419SOL    HW110881   4.549   3.483   2.453
 3419SOL    HW210882   4.467   3.383   2.553
 3420SOL     OW10883   4.488   3.197   2.173
 3420SOL    HW110884   4.461   3.101   2.182
 3420SOL    HW210885   4.574   3.212   2.221
 3421SOL     OW10886   4.348   3.430   3.153
 3421SOL    HW110887   4.353   3.516   3.204
 3421SOL    HW210888   4.436   3.412   3.109
 3422SOL     OW10889   4.603   3.522   2.203
 3422SOL    HW110890   4.529   3.500   2.138
 3422SOL    HW210891   4.574   3.597   2.261
 3423SOL     OW10892   3.950   2.473   3.848
 3423SOL    HW110893   3.858   2.489   3.883
 3423SOL    HW210894   3.945   2.452   3.750
 3424SOL     OW10895   3.726   2.245   4.356
 3424SOL    HW110896   3.644   2.278   4.403
 3424SOL    HW210897   3.708   2.157   4.314
 3425SOL     OW10898   4.287   3.121   4.869
 3425SOL    HW110899   4.199   3.160   4.840
 3425SOL    HW210900   4.346   3.194   4.904
 3426SOL     OW10901   4.846   2.589   4.417
 3426SOL    HW110902   4.937   2.625   4.436
 3426SOL    HW210903   4.792   2.588   4.501
 3427SOL     OW10904   4.495   3.001   4.760
 3427SOL    HW110905   4.412   3.031   4.807
 3427SOL    HW210906   4.539   3.080   4.716
 3428SOL     OW10907   4.408   2.867   4.377
 3428SOL    HW110908   4.480   2.849   4.445
 3428SOL    HW210909   4.337   2.923   4.418
 3429SOL     OW10910   4.067   3.279   4.786
 3429SOL    HW110911   3.981   3.254   4.743
 3429SOL    HW210912   4.116   3.345   4.730
 3430SOL     OW10913   0.247   3.412   0.077
 3430SOL    HW110914   0.160   3.458   0.090
 3430SOL    HW210915   0.253   3.333   0.139
 3431SOL     OW10916   3.944   3.589   4.182
 3431SOL    HW110917   3.968   3.659   4.249
 3431SOL    HW210918   4.026   3.561   4.132
 3432SOL     OW10919   3.984   2.950   4.613
 3432SOL    HW110920   3.981   2.858   4.653
 3432SOL    HW210921   3.923   3.011   4.664
 3433SOL     OW10922   4.335   2.831   3.850
 3433SOL    HW110923   4.368   2.893   3.779
 3433SOL    HW210924   4.359   2.867   3.940
 3434SOL     OW10925   3.844   2.512   4.287
 3434SOL    HW110926   3.805   2.421   4.301
 3434SOL    HW210927   3.831   2.567   4.370
 3435SOL     OW10928   3.754   3.460   3.856
 3435SOL    HW110929   3.745   3.362   3.870
 3435SOL    HW210930   3.726   3.509   3.938
 3436SOL     OW10931   4.334   3.248   4.456
 3436SOL    HW110932   4.287   3.160   4.469
 3436SOL    HW210933   4.319   3.280   4.362
 3437SOL     OW10934   4.529   1.867   4.225
 3437SOL    HW110935   4.573   1.955   4.208
 3437SOL    HW210936   4.434   1.881   4.253
 3438SOL     OW10937   4.321   2.592   3.994
 3438SOL    HW110938   4.332   2.668   3.930
 3438SOL    HW210939   4.249   2.612   4.059
 3439SOL     OW10940   4.768   2.551   4.152
 3439SOL    HW110941   4.784   2.564   4.250
 3439SOL    HW210942   4.679   2.507   4.138
 3440SOL     OW10943   3.814   2.684   4.500
 3440SOL    HW110944   3.900   2.673   4.551
 3440SOL    HW210945   3.764   2.763   4.536
 3441SOL     OW10946   4.624   2.209   3.926
 3441SOL    HW110947   4.660   2.273   3.858
 3441SOL    HW210948   4.593   2.126   3.880
 3442SOL     OW10949   4.270   2.044   4.624
 3442SOL    HW110950   4.268   2.076   4.719
 3442SOL    HW210951   4.274   2.123   4.562
 3443SOL     OW10952   4.711   3.302   4.188
 3443SOL    HW110953   4.685   3.387   4.142
 3443SOL    HW210954   4.733   3.322   4.283
 3444SOL     OW10955   4.080   3.668   4.582
 3444SOL    HW110956   4.123   3.579   4.593
 3444SOL    HW210957   4.148   3.740   4.598
 3445SOL     OW10958   4.841   3.619   3.971
 3445SOL    HW110959   4.756   3.581   4.009
 3445SOL    HW210960   4.835   3.621   3.871
 3446SOL     OW10961   4.204   3.573   4.068
 3446SOL    HW110962   4.227   3.655   4.120
 3446SOL    HW210963   4.256   3.572   3.982
 3447SOL     OW10964   3.997   3.653   4.938
 3447SOL    HW110965   3.992   3.585   5.012
 3447SOL    HW210966   3.953   3.616   4.856
 3448SOL     OW10967   4.661   3.564   4.625
 3448SOL    HW110968   4.743   3.514   4.652
 3448SOL    HW210969   4.613   3.514   4.553
 3449SOL     OW10970   4.113   2.553   4.208
 3449SOL    HW110971   4.141   2.461   4.181
 3449SOL    HW210972   4.016   2.553   4.229
 3450SOL     OW10973   4.373   1.992   3.820
 3450SOL    HW110974   4.431   1.915   3.848
 3450SOL    HW210975   4.306   1.960   3.753
 3451SOL     OW10976   4.535   3.251   4.651
 3451SOL    HW110977   4.628   3.248   4.615
 3451SOL    HW210978   4.470   3.251   4.576
 3452SOL     OW10979   4.653   2.371   4.625
 3452SOL    HW110980   4.628   2.359   4.529
 3452SOL    HW210981   4.683   2.283   4.663
 3453SOL     OW10982   4.652   2.106   4.185
 3453SOL    HW110983   4.627   2.151   4.100
 3453SOL    HW210984   4.751   2.091   4.187
 3454SOL     OW10985   4.947   3.438   4.523
 3454SOL    HW110986   4.960   3.504   4.450
 3454SOL    HW210987   5.035   3.400   4.551
 3455SOL     OW10988   4.188   3.012   4.453
 3455SOL    HW110989   4.119   2.993   4.523
 3455SOL    HW210990   4.154   2.981   4.364
 3456SOL     OW10991   4.986   3.654   4.364
 3456SOL    HW110992   5.028   3.672   4.276
 3456SOL    HW210993   4.913   3.720   4.380
 3457SOL     OW10994   4.754   2.409   3.746
 3457SOL    HW110995   4.703   2.492   3.725
 3457SOL    HW210996   4.817   2.427   3.821
 3458SOL     OW10997   4.591   2.321   4.362
 3458SOL    HW110998   4.546   2.385   4.299
 3458SOL    HW210999   4.611   2.236   4.314
 3459SOL     OW11000   4.740   1.913   4.470
 3459SOL    HW111001   4.674   1.905   4.394
 3459SOL    HW211002   4.724   1.838   4.534
 3460SOL     OW11003   4.436   2.922   4.098
 3460SOL    HW111004   4.420   2.907   4.196
 3460SOL    HW211005   4.514   2.867   4.068
 3461SOL     OW11006   4.156   2.666  -0.029
 3461SOL    HW111007   4.213   2.708   0.041
 3461SOL    HW211008   4.089   2.605   0.014
 3462SOL     OW11009   4.272   2.405   4.591
 3462SOL    HW111010   4.288   2.463   4.512
 3462SOL    HW211011   4.338   2.428   4.663
 3463SOL     OW11012   4.307   2.734   4.752
 3463SOL    HW111013   4.334   2.830   4.751
 3463SOL    HW211014   4.248   2.716   4.831
 3464SOL     OW11015   0.054   2.724   4.789
 3464SOL    HW111016  -0.023   2.718   4.726
 3464SOL    HW211017   0.096   2.633   4.799
 3465SOL     OW11018   4.930   2.413   3.979
 3465SOL    HW111019   4.950   2.325   4.021
 3465SOL    HW211020   4.880   2.470   4.044
 3466SOL     OW11021   3.767   3.206  -0.033
 3466SOL    HW111022   3.805   3.146   0.037
 3466SOL    HW211023   3.772   3.301  -0.001
 3467SOL     OW11024   4.449   2.494   4.777
 3467SOL    HW111025   4.528   2.471   4.720
 3467SOL    HW211026   4.418   2.587   4.756
 3468SOL     OW11027   4.017   1.920   4.348
 3468SOL    HW111028   4.013   2.018   4.366
 3468SOL    HW211029   4.033   1.871   4.434
 3469SOL     OW11030   4.746   2.619   4.686
 3469SOL    HW111031   4.751   2.634   4.785
 3469SOL    HW211032   4.722   2.524   4.668
 3470SOL     OW11033   0.293   2.124   3.896
 3470SOL    HW111034   0.198   2.131   3.864
 3470SOL    HW211035   0.320   2.210   3.939
 3471SOL     OW11036   4.793   3.200   4.570
 3471SOL    HW111037   4.798   3.117   4.514
 3471SOL    HW211038   4.854   3.269   4.533
 3472SOL     OW11039   4.038   2.672   4.666
 3472SOL    HW111040   4.134   2.697   4.664
 3472SOL    HW211041   4.027   2.582   4.709
 3473SOL     OW11042   4.038   2.376   4.730
 3473SOL    HW111043   4.012   2.281   4.715
 3473SOL    HW211044   4.122   2.395   4.679
 3474SOL     OW11045   4.871   2.093   0.279
 3474SOL    HW111046   4.858   2.192   0.282
 3474SOL    HW211047   4.860   2.060   0.185
 3475SOL     OW11048   3.730   3.190   3.909
 3475SOL    HW111049   3.637   3.207   3.876
 3475SOL    HW211050   3.738   3.094   3.936
 3476SOL     OW11051   3.819   3.653   4.660
 3476SOL    HW111052   3.781   3.570   4.620
 3476SOL    HW211053   3.914   3.665   4.628
 3477SOL     OW11054   4.226   3.439   4.630
 3477SOL    HW111055   4.296   3.506   4.656
 3477SOL    HW211056   4.267   3.368   4.574
 3478SOL     OW11057   4.714   2.634   4.958
 3478SOL    HW111058   4.767   2.673   5.034
 3478SOL    HW211059   4.617   2.653   4.972
 3479SOL     OW11060   3.772   2.410   4.834
 3479SOL    HW111061   3.857   2.399   4.783
 3479SOL    HW211062   3.792   2.450   4.923
 3480SOL     OW11063   4.533   2.430   4.083
 3480SOL    HW111064   4.543   2.352   4.021
 3480SOL    HW211065   4.459   2.489   4.050
 3481SOL     OW11066   4.421   2.336   4.996
 3481SOL    HW111067   4.356   2.262   4.979
 3481SOL    HW211068   4.428   2.395   4.915
 3482SOL     OW11069   4.195   2.371   3.895
 3482SOL    HW111070   4.253   2.447   3.925
 3482SOL    HW211071   4.101   2.403   3.885
 3483SOL     OW11072   4.937   3.591   4.864
 3483SOL    HW111073   5.008   3.614   4.798
 3483SOL    HW211074   4.968   3.517   4.923
 3484SOL     OW11075   3.805   3.129   4.716
 3484SOL    HW111076   3.789   3.154   4.811
 3484SOL    HW211077   3.734   3.066   4.685
 3485SOL     OW11078   4.398   3.478   3.871
 3485SOL    HW111079   4.408   3.494   3.772
 3485SOL    HW211080   4.361   3.386   3.886
 3486SOL     OW11081   3.981   2.175   4.449
 3486SOL    HW111082   3.903   2.218   4.403
 3486SOL    HW211083   3.955   2.149   4.542
 3487SOL     OW11084   4.593   2.890   0.063
 3487SOL    HW111085   4.601   2.904  -0.035
 3487SOL    HW211086   4.574   2.977   0.108
 3488SOL     OW11087   4.645   2.773   4.019
 3488SOL    HW111088   4.703   2.807   3.945
 3488SOL    HW211089   4.691   2.696   4.064
 3489SOL     OW11090   4.783   2.958   4.442
 3489SOL    HW111091   4.707   2.909   4.484
 3489SOL    HW211092   4.809   2.911   4.357
 3490SOL     OW11093   4.730   2.103   4.684
 3490SOL    HW111094   4.741   2.049   4.600
 3490SOL    HW211095   4.735   2.042   4.763
 3491SOL     OW11096   4.319   3.349   4.206
 3491SOL    HW111097   4.371   3.297   4.139
 3491SOL    HW211098   4.267   3.421   4.160
 3492SOL     OW11099   3.803   2.193   3.747
 3492SOL    HW111100   3.707   2.178   3.721
 3492SOL    HW211101   3.838   2.275   3.701
 3493SOL     OW11102   4.314   2.599   4.390
 3493SOL    HW111103   4.358   2.688   4.379
 3493SOL    HW211104   4.238   2.591   4.325
 3494SOL     OW11105   4.574   3.232   3.747
 3494SOL    HW111106   4.559   3.257   3.843
 3494SOL    HW211107   4.607   3.312   3.697
 3495SOL     OW11108   4.390   3.657   4.679
 3495SOL    HW111109   4.364   3.748   4.647
 3495SOL    HW211110   4.486   3.641   4.659
 3496SOL     OW11111   4.590   2.824   4.578
 3496SOL    HW111112   4.642   2.748   4.618
 3496SOL    HW211113   4.555   2.883   4.651
 3497SOL     OW11114   4.799   2.845   3.811
 3497SOL    HW111115   4.772   2.902   3.733
 3497SOL    HW211116   4.882   2.794   3.788
 3498SOL     OW11117   3.791   3.091   4.383
 3498SOL    HW111118   3.807   3.044   4.470
 3498SOL    HW211119   3.876   3.094   4.331
 3499SOL     OW11120   4.543   3.448   4.409
 3499SOL    HW111121   4.549   3.483   4.315
 3499SOL    HW211122   4.467   3.384   4.416
 3500SOL     OW11123   4.727   1.886   4.871
 3500SOL    HW111124   4.661   1.828   4.824
 3500SOL    HW211125   4.816   1.840   4.873
 3501SOL     OW11126   4.486   3.198   4.037
 3501SOL    HW111127   4.460   3.101   4.044
 3501SOL    HW211128   4.574   3.212   4.083
 3502SOL     OW11129   4.601   3.521   4.066
 3502SOL    HW111130   4.529   3.500   4.000
 3502SOL    HW211131   4.572   3.598   4.123
 3503SOL     OW11132   3.920   4.374   0.069
 3503SOL    HW111133   3.876   4.370   0.159
 3503SOL    HW211134   3.975   4.291   0.055
 3504SOL     OW11135   3.727   4.104   0.631
 3504SOL    HW111136   3.647   4.127   0.686
 3504SOL    HW211137   3.713   4.017   0.585
 3505SOL     OW11138   4.841   4.443   0.696
 3505SOL    HW111139   4.933   4.479   0.707
 3505SOL    HW211140   4.791   4.452   0.782
 3506SOL     OW11141   4.501   4.883   1.033
 3506SOL    HW111142   4.422   4.905   1.090
 3506SOL    HW211143   4.514   4.956   0.965
 3507SOL     OW11144   4.588   4.500   1.818
 3507SOL    HW111145   4.579   4.568   1.892
 3507SOL    HW211146   4.614   4.547   1.734
 3508SOL     OW11147   4.406   4.728   0.654
 3508SOL    HW111148   4.474   4.711   0.725
 3508SOL    HW211149   4.336   4.791   0.688
 3509SOL     OW11150   4.430   4.886   1.801
 3509SOL    HW111151   4.481   4.962   1.840
 3509SOL    HW211152   4.344   4.919   1.762
 3510SOL     OW11153   4.169   4.121   1.510
 3510SOL    HW111154   4.248   4.062   1.497
 3510SOL    HW211155   4.085   4.068   1.495
 3511SOL     OW11156   4.298   4.696   0.148
 3511SOL    HW111157   4.358   4.733   0.077
 3511SOL    HW211158   4.331   4.723   0.238
 3512SOL     OW11159   3.848   4.357   0.574
 3512SOL    HW111160   3.813   4.266   0.593
 3512SOL    HW211161   3.835   4.416   0.653
 3513SOL     OW11162   3.845   4.463   1.580
 3513SOL    HW111163   3.942   4.475   1.604
 3513SOL    HW211164   3.796   4.548   1.599
 3514SOL     OW11165   4.538   3.726   0.507
 3514SOL    HW111166   4.578   3.815   0.486
 3514SOL    HW211167   4.439   3.737   0.519
 3515SOL     OW11168   3.917   4.697   1.267
 3515SOL    HW111169   4.004   4.649   1.252
 3515SOL    HW211170   3.842   4.643   1.230
 3516SOL     OW11171   4.316   4.443   0.273
 3516SOL    HW111172   4.330   4.529   0.225
 3516SOL    HW211173   4.244   4.455   0.342
 3517SOL     OW11174   4.519   4.344   1.454
 3517SOL    HW111175   4.493   4.322   1.548
 3517SOL    HW211176   4.480   4.277   1.392
 3518SOL     OW11177   4.687   4.610   1.577
 3518SOL    HW111178   4.742   4.534   1.542
 3518SOL    HW211179   4.631   4.647   1.503
 3519SOL     OW11180   4.710   4.128   1.251
 3519SOL    HW111181   4.618   4.152   1.281
 3519SOL    HW211182   4.706   4.083   1.162
 3520SOL     OW11183   4.759   4.426   0.427
 3520SOL    HW111184   4.785   4.421   0.523
 3520SOL    HW211185   4.679   4.367   0.411
 3521SOL     OW11186   3.815   4.543   0.779
 3521SOL    HW111187   3.903   4.536   0.827
 3521SOL    HW211188   3.765   4.623   0.812
 3522SOL     OW11189   4.616   4.071   0.210
 3522SOL    HW111190   4.648   4.134   0.139
 3522SOL    HW211191   4.610   3.978   0.172
 3523SOL     OW11192   4.297   3.912   0.897
 3523SOL    HW111193   4.267   3.926   0.991
 3523SOL    HW211194   4.310   4.001   0.852
 3524SOL     OW11195   4.049   4.676   0.261
 3524SOL    HW111196   4.133   4.693   0.209
 3524SOL    HW211197   3.996   4.604   0.216
 3525SOL     OW11198   3.912   4.015   1.508
 3525SOL    HW111199   3.828   4.069   1.503
 3525SOL    HW211200   3.898   3.938   1.570
 3526SOL     OW11201   4.113   4.416   0.476
 3526SOL    HW111202   4.137   4.319   0.480
 3526SOL    HW211203   4.018   4.428   0.505
 3527SOL     OW11204   4.339   3.824   0.117
 3527SOL    HW111205   4.438   3.826   0.131
 3527SOL    HW211206   4.319   3.809   0.020
 3528SOL     OW11207   4.493   4.004   1.758
 3528SOL    HW111208   4.571   3.941   1.758
 3528SOL    HW211209   4.431   3.981   1.834
 3529SOL     OW11210   4.651   4.232   0.902
 3529SOL    HW111211   4.626   4.226   0.806
 3529SOL    HW211212   4.674   4.141   0.937
 3530SOL     OW11213   4.270   3.783   0.500
 3530SOL    HW111214   4.187   3.787   0.555
 3530SOL    HW211215   4.275   3.864   0.441
 3531SOL     OW11216   4.032   3.781   0.231
 3531SOL    HW111217   4.071   3.819   0.148
 3531SOL    HW211218   4.085   3.701   0.259
 3532SOL     OW11219   4.655   3.968   0.461
 3532SOL    HW111220   4.625   4.014   0.377
 3532SOL    HW211221   4.753   3.952   0.457
 3533SOL     OW11222   4.807   4.395   1.456
 3533SOL    HW111223   4.722   4.342   1.459
 3533SOL    HW211224   4.882   4.333   1.433
 3534SOL     OW11225   4.174   4.861   0.742
 3534SOL    HW111226   4.119   4.808   0.807
 3534SOL    HW211227   4.149   4.836   0.648
 3535SOL     OW11228   4.758   4.243   0.046
 3535SOL    HW111229   4.728   4.313  -0.019
 3535SOL    HW211230   4.818   4.285   0.114
 3536SOL     OW11231   3.811   4.281   1.383
 3536SOL    HW111232   3.906   4.250   1.383
 3536SOL    HW211233   3.799   4.354   1.450
 3537SOL     OW11234   4.596   4.182   0.637
 3537SOL    HW111235   4.549   4.248   0.579
 3537SOL    HW211236   4.612   4.098   0.585
 3538SOL     OW11237   4.742   3.773   0.743
 3538SOL    HW111238   4.672   3.771   0.671
 3538SOL    HW211239   4.724   3.702   0.810
 3539SOL     OW11240   4.644   3.821   1.402
 3539SOL    HW111241   4.660   3.802   1.305
 3539SOL    HW211242   4.725   3.865   1.441
 3540SOL     OW11243   4.703   4.836   1.727
 3540SOL    HW111244   4.605   4.851   1.741
 3540SOL    HW211245   4.716   4.759   1.665
 3541SOL     OW11246   4.426   4.759   0.376
 3541SOL    HW111247   4.411   4.758   0.475
 3541SOL    HW211248   4.512   4.713   0.355
 3542SOL     OW11249   4.145   4.535   1.251
 3542SOL    HW111250   4.217   4.554   1.317
 3542SOL    HW211251   4.096   4.451   1.278
 3543SOL     OW11252   4.089   4.807   0.496
 3543SOL    HW111253   4.106   4.897   0.455
 3543SOL    HW211254   4.069   4.741   0.424
 3544SOL     OW11255   4.299   4.254   0.837
 3544SOL    HW111256   4.304   4.327   0.770
 3544SOL    HW211257   4.339   4.285   0.924
 3545SOL     OW11258   4.137   4.465   1.597
 3545SOL    HW111259   4.205   4.515   1.543
 3545SOL    HW211260   4.174   4.376   1.623
 3546SOL     OW11261   4.719   3.849   1.763
 3546SOL    HW111262   4.776   3.922   1.726
 3546SOL    HW211263   4.753   3.760   1.731
 3547SOL     OW11264   4.217   3.765   1.751
 3547SOL    HW111265   4.180   3.707   1.679
 3547SOL    HW211266   4.170   3.853   1.751
 3548SOL     OW11267   4.302   4.590   1.029
 3548SOL    HW111268   4.340   4.682   1.021
 3548SOL    HW211269   4.246   4.584   1.112
 3549SOL     OW11270   0.050   4.572   1.070
 3549SOL    HW111271  -0.022   4.566   1.001
 3549SOL    HW211272   0.131   4.523   1.039
 3550SOL     OW11273   4.045   3.892   1.299
 3550SOL    HW111274   3.983   3.933   1.367
 3550SOL    HW211275   4.008   3.804   1.270
 3551SOL     OW11276   4.446   4.352   1.057
 3551SOL    HW111277   4.522   4.329   0.996
 3551SOL    HW211278   4.413   4.445   1.035
 3552SOL     OW11279   4.029   3.796   0.626
 3552SOL    HW111280   3.976   3.878   0.648
 3552SOL    HW211281   4.039   3.740   0.709
 3553SOL     OW11282   4.746   4.482   0.964
 3553SOL    HW111283   4.751   4.504   1.061
 3553SOL    HW211284   4.722   4.386   0.952
 3554SOL     OW11285   4.083   4.646   1.801
 3554SOL    HW111286   4.163   4.658   1.861
 3554SOL    HW211287   4.103   4.576   1.733
 3555SOL     OW11288   4.043   4.530   0.931
 3555SOL    HW111289   4.140   4.554   0.934
 3555SOL    HW211290   4.026   4.452   0.990
 3556SOL     OW11291   4.872   4.109   1.688
 3556SOL    HW111292   4.812   4.164   1.746
 3556SOL    HW211293   4.963   4.150   1.687
 3557SOL     OW11294   4.877   3.936   1.478
 3557SOL    HW111295   4.873   4.004   1.551
 3557SOL    HW211296   4.896   3.982   1.391
 3558SOL     OW11297   3.678  -0.009   0.160
 3558SOL    HW111298   3.666   0.077   0.210
 3558SOL    HW211299   3.761  -0.055   0.191
 3559SOL     OW11300   4.704   4.528   1.234
 3559SOL    HW111301   4.768   4.498   1.304
 3559SOL    HW211302   4.619   4.475   1.240
 3560SOL     OW11303   3.762   4.279   1.115
 3560SOL    HW111304   3.820   4.211   1.070
 3560SOL    HW211305   3.781   4.280   1.213
 3561SOL     OW11306   3.928   4.240   1.730
 3561SOL    HW111307   3.983   4.196   1.659
 3561SOL    HW211308   3.866   4.306   1.687
 3562SOL     OW11309   4.530   4.289   0.357
 3562SOL    HW111310   4.547   4.214   0.293
 3562SOL    HW211311   4.453   4.344   0.325
 3563SOL     OW11312   4.428   4.180   1.264
 3563SOL    HW111313   4.356   4.111   1.257
 3563SOL    HW211314   4.424   4.241   1.185
 3564SOL     OW11315   3.878   4.860   1.481
 3564SOL    HW111316   3.876   4.800   1.561
 3564SOL    HW211317   3.890   4.804   1.399
 3565SOL     OW11318   4.619   3.816   0.117
 3565SOL    HW111319   4.653   3.811   0.024
 3565SOL    HW211320   4.677   3.762   0.177
 3566SOL     OW11321   4.545   4.744   1.377
 3566SOL    HW111322   4.603   4.720   1.299
 3566SOL    HW211323   4.560   4.841   1.400
 3567SOL     OW11324   4.657   4.642   0.296
 3567SOL    HW111325   4.727   4.667   0.229
 3567SOL    HW211326   4.690   4.563   0.349
 3568SOL     OW11327   4.099   0.017   1.483
 3568SOL    HW111328   4.070   0.112   1.466
 3568SOL    HW211329   4.019  -0.043   1.482
 3569SOL     OW11330   4.793   4.792   0.733
 3569SOL    HW111331   4.706   4.749   0.758
 3569SOL    HW211332   4.816   4.768   0.638
 3570SOL     OW11333   4.702   3.962   0.969
 3570SOL    HW111334   4.720   3.918   0.880
 3570SOL    HW211335   4.713   3.894   1.042
 3571SOL     OW11336   3.834   4.722   1.711
 3571SOL    HW111337   3.755   4.720   1.772
 3571SOL    HW211338   3.918   4.703   1.762
 3572SOL     OW11339   4.403   3.925   1.499
 3572SOL    HW111340   4.488   3.899   1.453
 3572SOL    HW211341   4.425   3.957   1.592
 3573SOL     OW11342   3.791   3.875   0.320
 3573SOL    HW111343   3.770   3.961   0.273
 3573SOL    HW211344   3.883   3.844   0.293
 3574SOL     OW11345   4.346   4.558   1.429
 3574SOL    HW111346   4.402   4.640   1.419
 3574SOL    HW211347   4.405   4.478   1.442
 3575SOL     OW11348   4.447   4.286   1.703
 3575SOL    HW111349   4.478   4.355   1.769
 3575SOL    HW211350   4.472   4.195   1.736
 3576SOL     OW11351   4.311   4.466   0.663
 3576SOL    HW111352   4.354   4.556   0.654
 3576SOL    HW211353   4.238   4.457   0.596
 3577SOL     OW11354   4.579   4.681   0.862
 3577SOL    HW111355   4.637   4.608   0.898
 3577SOL    HW211356   4.558   4.746   0.935
 3578SOL     OW11357   4.826   4.700   0.083
 3578SOL    HW111358   4.820   4.776   0.018
 3578SOL    HW211359   4.919   4.697   0.121
 3579SOL     OW11360   3.760   4.950   0.640
 3579SOL    HW111361   3.758   4.890   0.721
 3579SOL    HW211362   3.855   4.968   0.615
 3580SOL     OW11363   4.142   4.152   0.508
 3580SOL    HW111364   4.187   4.077   0.458
 3580SOL    HW211365   4.132   4.126   0.604
 3581SOL     OW11366   4.719   3.749   1.147
 3581SOL    HW111367   4.654   3.684   1.109
 3581SOL    HW211368   4.810   3.707   1.152
 3582SOL     OW11369   4.479   0.011   0.281
 3582SOL    HW111370   4.438  -0.070   0.323
 3582SOL    HW211371   4.535   0.059   0.348
 3583SOL     OW11372   3.942   4.369   1.976
 3583SOL    HW111373   3.851   4.354   2.016
 3583SOL    HW211374   3.949   4.319   1.890
 3584SOL     OW11375   3.725   4.105   2.499
 3584SOL    HW111376   3.643   4.140   2.543
 3584SOL    HW211377   3.704   4.019   2.452
 3585SOL     OW11378   4.843   4.438   2.559
 3585SOL    HW111379   4.933   4.481   2.570
 3585SOL    HW211380   4.790   4.452   2.643
 3586SOL     OW11381   4.500   4.885   2.894
 3586SOL    HW111382   4.418   4.904   2.947
 3586SOL    HW211383   4.506   4.951   2.819
 3587SOL     OW11384   4.584   4.501   3.679
 3587SOL    HW111385   4.586   4.568   3.754
 3587SOL    HW211386   4.613   4.546   3.595
 3588SOL     OW11387   4.408   4.727   2.515
 3588SOL    HW111388   4.475   4.712   2.587
 3588SOL    HW211389   4.335   4.786   2.549
 3589SOL     OW11390   4.430   4.886   3.666
 3589SOL    HW111391   4.483   4.962   3.705
 3589SOL    HW211392   4.343   4.922   3.630
 3590SOL     OW11393   4.170   4.126   3.408
 3590SOL    HW111394   4.250   4.071   3.382
 3590SOL    HW211395   4.087   4.075   3.387
 3591SOL     OW11396   3.966   4.811   2.757
 3591SOL    HW111397   3.981   4.715   2.781
 3591SOL    HW211398   3.889   4.847   2.810
 3592SOL     OW11399   4.311   4.704   1.990
 3592SOL    HW111400   4.355   4.759   1.919
 3592SOL    HW211401   4.351   4.728   2.079
 3593SOL     OW11402   3.840   4.376   2.425
 3593SOL    HW111403   3.802   4.285   2.440
 3593SOL    HW211404   3.830   4.430   2.508
 3594SOL     OW11405   3.847   4.465   3.444
 3594SOL    HW111406   3.944   4.482   3.462
 3594SOL    HW211407   3.795   4.548   3.460
 3595SOL     OW11408   4.535   3.726   2.368
 3595SOL    HW111409   4.575   3.816   2.350
 3595SOL    HW211410   4.436   3.736   2.380
 3596SOL     OW11411   3.914   4.690   3.129
 3596SOL    HW111412   4.001   4.644   3.114
 3596SOL    HW211413   3.840   4.633   3.094
 3597SOL     OW11414   4.050   3.968   3.668
 3597SOL    HW111415   4.104   4.052   3.664
 3597SOL    HW211416   3.958   3.989   3.702
 3598SOL     OW11417   4.325   4.447   2.135
 3598SOL    HW111418   4.326   4.524   2.071
 3598SOL    HW211419   4.246   4.454   2.195
 3599SOL     OW11420   4.518   4.340   3.316
 3599SOL    HW111421   4.492   4.320   3.410
 3599SOL    HW211422   4.476   4.274   3.254
 3600SOL     OW11423   4.684   4.612   3.441
 3600SOL    HW111424   4.740   4.538   3.405
 3600SOL    HW211425   4.629   4.651   3.367
 3601SOL     OW11426   4.711   4.125   3.120
 3601SOL    HW111427   4.620   4.155   3.146
 3601SOL    HW211428   4.708   4.087   3.027
 3602SOL     OW11429   4.761   4.425   2.288
 3602SOL    HW111430   4.785   4.423   2.385
 3602SOL    HW211431   4.678   4.371   2.273
 3603SOL     OW11432   3.811   4.545   2.639
 3603SOL    HW111433   3.901   4.538   2.683
 3603SOL    HW211434   3.763   4.625   2.674
 3604SOL     OW11435   4.620   4.070   2.059
 3604SOL    HW111436   4.654   4.139   1.994
 3604SOL    HW211437   4.608   3.983   2.012
 3605SOL     OW11438   4.266   3.912   2.751
 3605SOL    HW111439   4.288   3.925   2.848
 3605SOL    HW211440   4.274   3.999   2.702
 3606SOL     OW11441   4.049   4.673   2.111
 3606SOL    HW111442   4.134   4.697   2.065
 3606SOL    HW211443   4.011   4.590   2.070
 3607SOL     OW11444   3.921   4.023   3.377
 3607SOL    HW111445   3.826   4.051   3.361
 3607SOL    HW211446   3.921   3.940   3.432
 3608SOL     OW11447   4.116   4.413   2.344
 3608SOL    HW111448   4.146   4.318   2.358
 3608SOL    HW211449   4.018   4.420   2.359
 3609SOL     OW11450   4.367   3.857   1.960
 3609SOL    HW111451   4.430   3.788   1.995
 3609SOL    HW211452   4.308   3.816   1.891
 3610SOL     OW11453   4.493   4.004   3.619
 3610SOL    HW111454   4.571   3.941   3.619
 3610SOL    HW211455   4.430   3.979   3.693
 3611SOL     OW11456   4.652   4.231   2.766
 3611SOL    HW111457   4.627   4.225   2.669
 3611SOL    HW211458   4.679   4.140   2.798
 3612SOL     OW11459   4.268   3.788   2.358
 3612SOL    HW111460   4.187   3.786   2.417
 3612SOL    HW211461   4.278   3.880   2.320
 3613SOL     OW11462   4.652   3.968   2.321
 3613SOL    HW111463   4.621   4.018   2.239
 3613SOL    HW211464   4.751   3.956   2.317
 3614SOL     OW11465   4.801   4.401   3.318
 3614SOL    HW111466   4.718   4.346   3.323
 3614SOL    HW211467   4.880   4.341   3.309
 3615SOL     OW11468   4.181   4.855   2.604
 3615SOL    HW111469   4.106   4.841   2.668
 3615SOL    HW211470   4.151   4.832   2.511
 3616SOL     OW11471   4.744   4.276   1.883
 3616SOL    HW111472   4.690   4.353   1.850
 3616SOL    HW211473   4.805   4.307   1.955
 3617SOL     OW11474   3.806   4.284   3.246
 3617SOL    HW111475   3.898   4.246   3.252
 3617SOL    HW211476   3.796   4.358   3.313
 3618SOL     OW11477   4.317   3.922   3.019
 3618SOL    HW111478   4.354   3.838   3.060
 3618SOL    HW211479   4.225   3.939   3.054
 3619SOL     OW11480   4.597   4.182   2.501
 3619SOL    HW111481   4.547   4.249   2.446
 3619SOL    HW211482   4.608   4.098   2.448
 3620SOL     OW11483   4.741   3.775   2.604
 3620SOL    HW111484   4.670   3.770   2.534
 3620SOL    HW211485   4.726   3.703   2.672
 3621SOL     OW11486   4.645   3.821   3.262
 3621SOL    HW111487   4.662   3.802   3.166
 3621SOL    HW211488   4.726   3.863   3.303
 3622SOL     OW11489   4.701   4.840   3.588
 3622SOL    HW111490   4.603   4.851   3.603
 3622SOL    HW211491   4.718   4.762   3.528
 3623SOL     OW11492   4.427   4.774   2.230
 3623SOL    HW111493   4.411   4.770   2.328
 3623SOL    HW211494   4.509   4.722   2.207
 3624SOL     OW11495   4.143   4.535   3.115
 3624SOL    HW111496   4.218   4.555   3.179
 3624SOL    HW211497   4.100   4.448   3.140
 3625SOL     OW11498   4.086   4.806   2.356
 3625SOL    HW111499   4.101   4.897   2.316
 3625SOL    HW211500   4.076   4.739   2.283
 3626SOL     OW11501   4.276   4.258   2.725
 3626SOL    HW111502   4.288   4.320   2.647
 3626SOL    HW211503   4.333   4.288   2.801
 3627SOL     OW11504   4.137   4.464   3.459
 3627SOL    HW111505   4.204   4.515   3.405
 3627SOL    HW211506   4.175   4.375   3.484
 3628SOL     OW11507   4.718   3.847   3.623
 3628SOL    HW111508   4.775   3.920   3.584
 3628SOL    HW211509   4.756   3.759   3.596
 3629SOL     OW11510   4.218   3.766   3.611
 3629SOL    HW111511   4.179   3.707   3.540
 3629SOL    HW211512   4.156   3.842   3.629
 3630SOL     OW11513   4.308   4.588   2.895
 3630SOL    HW111514   4.332   4.682   2.873
 3630SOL    HW211515   4.246   4.587   2.974
 3631SOL     OW11516   0.052   4.574   2.931
 3631SOL    HW111517  -0.017   4.567   2.858
 3631SOL    HW211518   0.131   4.518   2.907
 3632SOL     OW11519   4.451   4.354   2.922
 3632SOL    HW111520   4.524   4.331   2.858
 3632SOL    HW211521   4.416   4.446   2.901
 3633SOL     OW11522   4.026   3.790   2.486
 3633SOL    HW111523   4.006   3.885   2.510
 3633SOL    HW211524   4.036   3.736   2.569
 3634SOL     OW11525   4.747   4.482   2.825
 3634SOL    HW111526   4.751   4.505   2.922
 3634SOL    HW211527   4.722   4.386   2.814
 3635SOL     OW11528   4.082   4.641   3.666
 3635SOL    HW111529   4.163   4.659   3.722
 3635SOL    HW211530   4.104   4.574   3.595
 3636SOL     OW11531   0.311   3.983   2.010
 3636SOL    HW111532   0.221   3.953   2.043
 3636SOL    HW211533   0.341   4.063   2.062
 3637SOL     OW11534   4.039   4.544   2.802
 3637SOL    HW111535   4.137   4.561   2.790
 3637SOL    HW211536   4.027   4.456   2.848
 3638SOL     OW11537   4.867   4.111   3.548
 3638SOL    HW111538   4.810   4.168   3.608
 3638SOL    HW211539   4.956   4.154   3.537
 3639SOL     OW11540   4.880   3.937   3.339
 3639SOL    HW111541   4.873   4.003   3.414
 3639SOL    HW211542   4.880   3.986   3.251
 3640SOL     OW11543   3.685   0.012   2.001
 3640SOL    HW111544   3.616   0.063   2.053
 3640SOL    HW211545   3.713  -0.068   2.053
 3641SOL     OW11546   4.704   4.528   3.093
 3641SOL    HW111547   4.764   4.500   3.167
 3641SOL    HW211548   4.618   4.478   3.099
 3642SOL     OW11549   3.759   4.282   2.979
 3642SOL    HW111550   3.821   4.219   2.932
 3642SOL    HW211551   3.782   4.284   3.076
 3643SOL     OW11552   3.918   4.245   3.590
 3643SOL    HW111553   3.976   4.197   3.524
 3643SOL    HW211554   3.871   4.321   3.545
 3644SOL     OW11555   4.533   4.288   2.220
 3644SOL    HW111556   4.541   4.213   2.154
 3644SOL    HW211557   4.458   4.349   2.192
 3645SOL     OW11558   4.425   4.177   3.123
 3645SOL    HW111559   4.386   4.091   3.092
 3645SOL    HW211560   4.425   4.243   3.048
 3646SOL     OW11561   3.870   4.856   3.341
 3646SOL    HW111562   3.871   4.797   3.422
 3646SOL    HW211563   3.886   4.800   3.259
 3647SOL     OW11564   3.982   4.043   2.575
 3647SOL    HW111565   3.891   4.076   2.550
 3647SOL    HW211566   3.992   4.043   2.674
 3648SOL     OW11567   4.545   4.744   3.239
 3648SOL    HW111568   4.600   4.721   3.159
 3648SOL    HW211569   4.558   4.841   3.262
 3649SOL     OW11570   4.643   4.634   2.153
 3649SOL    HW111571   4.703   4.664   2.079
 3649SOL    HW211572   4.687   4.560   2.204
 3650SOL     OW11573   4.089   0.007   3.376
 3650SOL    HW111574   4.077   0.098   3.337
 3650SOL    HW211575   4.007  -0.048   3.361
 3651SOL     OW11576   4.794   4.788   2.594
 3651SOL    HW111577   4.705   4.749   2.618
 3651SOL    HW211578   4.812   4.775   2.497
 3652SOL     OW11579   4.720   3.963   2.830
 3652SOL    HW111580   4.731   3.917   2.741
 3652SOL    HW211581   4.725   3.895   2.903
 3653SOL     OW11582   3.834   4.722   3.574
 3653SOL    HW111583   3.755   4.718   3.635
 3653SOL    HW211584   3.918   4.703   3.626
 3654SOL     OW11585   4.403   3.922   3.360
 3654SOL    HW111586   4.489   3.900   3.315
 3654SOL    HW211587   4.420   3.953   3.454
 3655SOL     OW11588   4.346   4.557   3.291
 3655SOL    HW111589   4.402   4.640   3.281
 3655SOL    HW211590   4.406   4.478   3.304
 3656SOL     OW11591   4.446   4.287   3.567
 3656SOL    HW111592   4.481   4.357   3.628
 3656SOL    HW211593   4.473   4.197   3.600
 3657SOL     OW11594   4.311   4.465   2.531
 3657SOL    HW111595   4.356   4.554   2.519
 3657SOL    HW211596   4.240   4.454   2.461
 3658SOL     OW11597   4.578   4.681   2.725
 3658SOL    HW111598   4.638   4.609   2.761
 3658SOL    HW211599   4.558   4.746   2.798
 3659SOL     OW11600   4.799   4.695   1.943
 3659SOL    HW111601   4.773   4.761   1.872
 3659SOL    HW211602   4.898   4.680   1.940
 3660SOL     OW11603   3.768   4.953   2.515
 3660SOL    HW111604   3.777   4.885   2.587
 3660SOL    HW211605   3.857   4.970   2.474
 3661SOL     OW11606   4.172   4.151   2.403
 3661SOL    HW111607   4.158   4.097   2.319
 3661SOL    HW211608   4.109   4.118   2.474
 3662SOL     OW11609   4.718   3.749   3.009
 3662SOL    HW111610   4.654   3.684   2.968
 3662SOL    HW211611   4.809   3.706   3.014
 3663SOL     OW11612   4.504   0.021   2.130
 3663SOL    HW111613   4.459  -0.061   2.166
 3663SOL    HW211614   4.584   0.043   2.186
 3664SOL     OW11615   3.759   4.793   2.170
 3664SOL    HW111616   3.856   4.797   2.146
 3664SOL    HW211617   3.734   4.700   2.195
 3665SOL     OW11618   3.948   4.364   3.844
 3665SOL    HW111619   3.858   4.349   3.884
 3665SOL    HW211620   3.951   4.324   3.752
 3666SOL     OW11621   3.948   3.996   4.709
 3666SOL    HW111622   3.981   3.951   4.792
 3666SOL    HW211623   3.853   3.971   4.692
 3667SOL     OW11624   3.726   4.108   4.359
 3667SOL    HW111625   3.642   4.140   4.403
 3667SOL    HW211626   3.710   4.021   4.314
 3668SOL     OW11627   4.841   4.444   4.421
 3668SOL    HW111628   4.934   4.479   4.430
 3668SOL    HW211629   4.792   4.455   4.507
 3669SOL     OW11630   4.510   4.890   4.745
 3669SOL    HW111631   4.433   4.899   4.809
 3669SOL    HW211632   4.502   4.960   4.674
 3670SOL     OW11633   4.410   4.725   4.375
 3670SOL    HW111634   4.477   4.710   4.447
 3670SOL    HW211635   4.335   4.781   4.410
 3671SOL     OW11636   3.987   4.806   4.624
 3671SOL    HW111637   3.979   4.713   4.658
 3671SOL    HW211638   3.922   4.865   4.672
 3672SOL     OW11639   4.312   4.705   3.853
 3672SOL    HW111640   4.355   4.759   3.781
 3672SOL    HW211641   4.351   4.729   3.941
 3673SOL     OW11642   3.842   4.373   4.288
 3673SOL    HW111643   3.804   4.282   4.304
 3673SOL    HW211644   3.831   4.429   4.370
 3674SOL     OW11645   4.534   3.727   4.230
 3674SOL    HW111646   4.575   3.816   4.212
 3674SOL    HW211647   4.435   3.738   4.240
 3675SOL     OW11648   3.908   4.697   4.968
 3675SOL    HW111649   3.997   4.651   4.957
 3675SOL    HW211650   3.835   4.629   4.961
 3676SOL     OW11651   4.323   4.449   3.999
 3676SOL    HW111652   4.331   4.520   3.929
 3676SOL    HW211653   4.245   4.468   4.058
 3677SOL     OW11654   4.760   4.423   4.157
 3677SOL    HW111655   4.782   4.427   4.254
 3677SOL    HW211656   4.674   4.374   4.144
 3678SOL     OW11657   3.812   4.543   4.502
 3678SOL    HW111658   3.899   4.533   4.549
 3678SOL    HW211659   3.765   4.625   4.536
 3679SOL     OW11660   4.621   4.073   3.924
 3679SOL    HW111661   4.660   4.140   3.860
 3679SOL    HW211662   4.601   3.988   3.875
 3680SOL     OW11663   4.272   3.905   4.621
 3680SOL    HW111664   4.260   3.937   4.716
 3680SOL    HW211665   4.275   3.984   4.560
 3681SOL     OW11666   4.049   4.670   3.975
 3681SOL    HW111667   4.133   4.698   3.928
 3681SOL    HW211668   4.011   4.589   3.930
 3682SOL     OW11669   4.113   4.418   4.211
 3682SOL    HW111670   4.139   4.326   4.182
 3682SOL    HW211671   4.015   4.420   4.231
 3683SOL     OW11672   4.368   3.859   3.821
 3683SOL    HW111673   4.428   3.785   3.852
 3683SOL    HW211674   4.304   3.824   3.753
 3684SOL     OW11675   4.652   4.232   4.626
 3684SOL    HW111676   4.627   4.220   4.529
 3684SOL    HW211677   4.683   4.144   4.662
 3685SOL     OW11678   4.267   3.792   4.220
 3685SOL    HW111679   4.185   3.787   4.277
 3685SOL    HW211680   4.271   3.881   4.175
 3686SOL     OW11681   4.653   3.968   4.183
 3686SOL    HW111682   4.623   4.017   4.101
 3686SOL    HW211683   4.751   3.950   4.177
 3687SOL     OW11684   4.192   4.856   4.465
 3687SOL    HW111685   4.118   4.839   4.531
 3687SOL    HW211686   4.161   4.833   4.373
 3688SOL     OW11687   4.750   4.271   3.745
 3688SOL    HW111688   4.702   4.355   3.719
 3688SOL    HW211689   4.814   4.291   3.819
 3689SOL     OW11690   4.594   4.181   4.362
 3689SOL    HW111691   4.550   4.248   4.303
 3689SOL    HW211692   4.610   4.097   4.310
 3690SOL     OW11693   4.740   3.774   4.467
 3690SOL    HW111694   4.670   3.769   4.395
 3690SOL    HW211695   4.724   3.701   4.533
 3691SOL     OW11696   4.431   4.778   4.094
 3691SOL    HW111697   4.411   4.764   4.191
 3691SOL    HW211698   4.512   4.725   4.069
 3692SOL     OW11699   4.142   4.543  -0.028
 3692SOL    HW111700   4.207   4.571   0.043
 3692SOL    HW211701   4.086   4.468   0.006
 3693SOL     OW11702   4.106   4.800   4.219
 3693SOL    HW111703   4.073   4.891   4.194
 3693SOL    HW211704   4.085   4.735   4.147
 3694SOL     OW11705   4.278   4.267   4.589
 3694SOL    HW111706   4.292   4.327   4.510
 3694SOL    HW211707   4.342   4.291   4.661
 3695SOL     OW11708   4.312   4.588   4.759
 3695SOL    HW111709   4.321   4.683   4.732
 3695SOL    HW211710   4.245   4.580   4.832
 3696SOL     OW11711   0.047   4.586   4.786
 3696SOL    HW111712  -0.023   4.583   4.715
 3696SOL    HW211713   0.084   4.494   4.800
 3697SOL     OW11714   4.910   4.301   3.963
 3697SOL    HW111715   4.957   4.224   4.007
 3697SOL    HW211716   4.866   4.357   4.033
 3698SOL     OW11717   4.452   4.353   4.781
 3698SOL    HW111718   4.529   4.333   4.721
 3698SOL    HW211719   4.418   4.446   4.762
 3699SOL     OW11720   4.028   3.790   4.348
 3699SOL    HW111721   4.010   3.886   4.370
 3699SOL    HW211722   4.034   3.736   4.432
 3700SOL     OW11723   4.744   4.480   4.682
 3700SOL    HW111724   4.747   4.494   4.781
 3700SOL    HW211725   4.722   4.384   4.663
 3701SOL     OW11726   4.036   4.530   4.670
 3701SOL    HW111727   4.132   4.553   4.656
 3701SOL    HW211728   4.029   4.437   4.706
 3702SOL     OW11729   4.045   4.249   4.727
 3702SOL    HW111730   4.010   4.156   4.716
 3702SOL    HW211731   4.129   4.260   4.675
 3703SOL     OW11732   3.677   0.047   3.969
 3703SOL    HW111733   3.638   0.066   3.880
 3703SOL    HW211734   3.722  -0.042   3.968
 3704SOL     OW11735   4.695   4.495   4.949
 3704SOL    HW111736   4.742   4.548   5.020
 3704SOL    HW211737   4.598   4.488   4.972
 3705SOL     OW11738   3.770   4.277   4.846
 3705SOL    HW111739   3.842   4.257   4.781
 3705SOL    HW211740   3.808   4.324   4.926
 3706SOL     OW11741   4.531   4.289   4.086
 3706SOL    HW111742   4.545   4.216   4.019
 3706SOL    HW211743   4.458   4.349   4.054
 3707SOL     OW11744   4.414   4.193   4.995
 3707SOL    HW111745   4.375   4.107   4.962
 3707SOL    HW211746   4.428   4.255   4.918
 3708SOL     OW11747   3.797   4.953   4.751
 3708SOL    HW111748   3.806   4.932   4.848
 3708SOL    HW211749   3.735   4.887   4.708
 3709SOL     OW11750   3.984   4.037   4.440
 3709SOL    HW111751   3.900   4.082   4.409
 3709SOL    HW211752   3.982   4.028   4.539
 3710SOL     OW11753   4.531   4.781   0.036
 3710SOL    HW111754   4.606   4.730  -0.006
 3710SOL    HW211755   4.557   4.809   0.128
 3711SOL     OW11756   4.644   4.634   4.016
 3711SOL    HW111757   4.702   4.661   3.939
 3711SOL    HW211758   4.688   4.561   4.067
 3712SOL     OW11759   4.793   4.790   4.457
 3712SOL    HW111760   4.705   4.749   4.481
 3712SOL    HW211761   4.814   4.770   4.361
 3713SOL     OW11762   4.731   3.965   4.682
 3713SOL    HW111763   4.738   3.909   4.600
 3713SOL    HW211764   4.734   3.907   4.763
 3714SOL     OW11765   3.800   4.054   3.742
 3714SOL    HW111766   3.704   4.041   3.718
 3714SOL    HW211767   3.835   4.135   3.694
 3715SOL     OW11768   4.314   4.463   4.391
 3715SOL    HW111769   4.358   4.551   4.381
 3715SOL    HW211770   4.238   4.456   4.326
 3716SOL     OW11771   4.578   4.679   4.584
 3716SOL    HW111772   4.636   4.607   4.622
 3716SOL    HW211773   4.558   4.747   4.655
 3717SOL     OW11774   4.798   4.690   3.803
 3717SOL    HW111775   4.782   4.759   3.733
 3717SOL    HW211776   4.893   4.695   3.834
 3718SOL     OW11777   3.763   4.938   4.370
 3718SOL    HW111778   3.771   4.886   4.455
 3718SOL    HW211779   3.851   4.979   4.346
 3719SOL     OW11780   4.723   3.754   4.871
 3719SOL    HW111781   4.661   3.692   4.823
 3719SOL    HW211782   4.813   3.710   4.881
 3720SOL     OW11783   4.503   0.022   3.992
 3720SOL    HW111784   4.465  -0.064   4.023
 3720SOL    HW211785   4.584   0.044   4.045
 3721SOL     OW11786   3.763   4.787   4.020
 3721SOL    HW111787   3.861   4.787   4.002
 3721SOL    HW211788   3.735   4.696   4.050
   5.00000   5.00000   5.00000
