Great Red Owns Many ACres of Sand
11788
    1ETH     C1    1   1.236   3.305   3.533  0.7168 -0.5357  0.0710
    1ETH     C2    2   1.117   3.358   3.461 -1.1341  0.4810 -0.6681
    1ETH     H1    3   1.296   3.379   3.586 -0.5009 -0.7942  1.9188
    1ETH     H2    4   1.294   3.242   3.466 -1.7598 -1.5575 -1.2303
    1ETH     H3    5   1.216   3.239   3.618  2.4753 -0.2244  0.7812
    1ETH     H4    6   1.089   3.452   3.510 -0.2193  1.1282 -1.3619
    1ETH     H5    7   1.034   3.288   3.473  0.2098 -0.8843  1.3224
    1ETH     H6    8   1.139   3.361   3.355 -1.2652 -2.6958 -0.8836
    2ETH     C1    9   3.907   0.167   2.823 -0.5040  0.2690  0.0765
    2ETH     C2   10   3.836   0.294   2.768 -0.4369 -0.3808  0.1994
    2ETH     H1   11   3.838   0.113   2.888 -0.2754  0.6194  0.6194
    2ETH     H2   12   4.000   0.208   2.864  0.9893  0.4049 -3.1155
    2ETH     H3   13   3.934   0.098   2.743 -2.1851 -1.4834  0.9474
    2ETH     H4   14   3.741   0.264   2.723 -0.7680  1.6935 -0.5990
    2ETH     H5   15   3.895   0.352   2.696 -0.5285 -1.8171 -1.0963
    2ETH     H6   16   3.826   0.369   2.846 -1.6314  2.2568 -2.3024
    3ETH     C1   17   4.765   2.992   2.745 -0.3977 -0.4296 -0.3090
    3ETH     C2   18   4.898   2.913   2.745 -0.0850  0.0050  0.5327
    3ETH     H1   19   4.681   2.929   2.774  0.4887 -1.9345 -0.8644
    3ETH     H2   20   4.746   3.032   2.645 -0.9510  2.6076  0.9148
    3ETH     H3   21   4.765   3.077   2.814 -0.3649 -1.4960  1.0493
    3ETH     H4   22   4.880   2.823   2.804 -0.3254  0.6873  1.5226
    3ETH     H5   23   4.969   2.971   2.804  2.0220 -1.5359 -0.3756
    3ETH     H6   24   4.935   2.891   2.645 -2.4730  1.9589 -0.9315
    4ETH     C1   25   4.110   2.573   3.880 -0.3538  0.4737 -0.1820
    4ETH     C2   26   3.988   2.639   3.810 -0.5851  0.0970  0.1495
    4ETH     H1   27   4.093   2.468   3.903  2.2177 -0.0789 -0.5158
    4ETH     H2   28   4.134   2.621   3.975  1.2748  0.4391 -0.5472
    4ETH     H3   29   4.201   2.579   3.819  0.2119  2.9845  0.7997
    4ETH     H4   30   3.897   2.647   3.871  0.1734 -0.8085  1.4487
    4ETH     H5   31   3.969   2.586   3.717 -0.6492  1.9935 -0.9779
    4ETH     H6   32   4.024   2.739   3.786 -0.2948  1.1449  4.1302
    5ETH     C1   33   0.154   3.908   2.316  0.4938 -0.4799 -0.3732
    5ETH     C2   34   0.164   3.828   2.441 -0.0405 -0.0440 -0.0519
    5ETH     H1   35   0.057   3.914   2.266  1.7304  0.5986 -2.8533
    5ETH     H2   36   0.215   3.869   2.235  0.4430 -0.8984 -0.2100
    5ETH     H3   37   0.169   4.015   2.332  2.2001 -0.9081  1.1266
    5ETH     H4   38   0.268   3.819   2.471 -0.5549 -1.6791  1.3509
    5ETH     H5   39   0.141   3.724   2.420 -1.3293  0.3603 -0.7810
    5ETH     H6   40   0.101   3.867   2.521 -1.6532  1.1370 -1.7907
    6ETH     C1   41   0.989   2.258   1.222  0.5220  0.0567 -0.7458
    6ETH     C2   42   0.863   2.174   1.184  0.3217  0.9114  0.1825
    6ETH     H1   43   0.991   2.366   1.207 -0.1563  0.2689  0.6059
    6ETH     H2   44   1.070   2.216   1.163  0.1353 -1.0890 -0.4880
    6ETH     H3   45   1.013   2.233   1.325 -1.3418 -1.8831 -0.6982
    6ETH     H4   46   0.866   2.087   1.251  1.1281  1.0391  0.3186
    6ETH     H5   47   0.866   2.129   1.085 -1.3452 -0.6787  0.7803
    6ETH     H6   48   0.762   2.212   1.202 -0.0138 -0.5201  1.6212
    7ETH     C1   49   4.477   1.931   1.335  0.1639 -0.0023 -0.4432
    7ETH     C2   50   4.414   1.976   1.468  0.2619 -0.2744 -0.2652
    7ETH     H1   51   4.402   1.913   1.258  0.0845 -0.9432 -0.1549
    7ETH     H2   52   4.523   1.835   1.354 -0.9171 -0.1318  1.9093
    7ETH     H3   53   4.549   2.009   1.312  0.3579  0.8595  2.6437
    7ETH     H4   54   4.484   1.951   1.548  0.0589 -1.8233 -0.5537
    7ETH     H5   55   4.319   1.926   1.486  0.0573  0.8449  2.2930
    7ETH     H6   56   4.399   2.084   1.469  2.8794  0.1625 -0.7498
    8ETH     C1   57   1.058   1.989   0.872 -0.9702  0.3218 -0.3196
    8ETH     C2   58   1.193   1.918   0.834 -0.1504  0.0271  0.3931
    8ETH     H1   59   1.093   2.063   0.945  1.7917 -1.4496  0.2813
    8ETH     H2   60   1.003   1.919   0.934  0.9436 -1.9152 -0.9697
    8ETH     H3   61   0.992   2.029   0.796 -0.6272  0.8578 -0.3464
    8ETH     H4   62   1.245   1.877   0.920 -0.1064  0.0224  0.3642
    8ETH     H5   63   1.258   1.984   0.776 -0.3562 -1.7939 -2.0319
    8ETH     H6   64   1.181   1.843   0.756  1.9989 -0.4086  0.4087
    9ETH     C1   65   2.823   1.882   0.063 -0.1327 -0.1929  0.1851
    9ETH     C2   66   2.852   1.726   0.066 -0.5672  0.1674  0.2004
    9ETH     H1   67   2.724   1.884   0.018 -0.6108 -2.4218  1.0180
    9ETH     H2   68   2.898   1.940   0.009 -0.0780  0.8975  1.3868
    9ETH     H3   69   2.820   1.910   0.169 -0.3933  2.6064 -0.4609
    9ETH     H4   70   2.762   1.683   0.111 -0.4108  0.8271  1.1654
    9ETH     H5   71   2.931   1.701   0.137  2.0822  4.6047 -0.8272
    9ETH     H6   72   2.855   1.680  -0.032 -1.3083 -0.2124  0.3488
   10ETH     C1   73   0.621   1.136   0.233 -0.2623  0.3694  0.3525
   10ETH     C2   74   0.469   1.094   0.217  0.3227 -0.0451 -0.2903
   10ETH     H1   75   0.670   1.076   0.310  0.8800  0.7540 -0.0640
   10ETH     H2   76   0.633   1.242   0.256 -0.6415  0.2743  1.0349
   10ETH     H3   77   0.667   1.108   0.139 -0.6252 -0.0116  0.2888
   10ETH     H4   78   0.473   0.991   0.180 -1.6416  0.2327 -1.3855
   10ETH     H5   79   0.416   1.150   0.141 -1.8288  0.0544  1.1858
   10ETH     H6   80   0.405   1.082   0.305  1.9734  0.2984  1.0162
   11ETH     C1   81   1.265   1.066   4.218  0.1794 -0.1508  0.0234
   11ETH     C2   82   1.379   1.028   4.311 -0.2816  0.8095 -0.1238
   11ETH     H1   83   1.195   1.111   4.289 -1.7079  0.1298 -1.9155
   11ETH     H2   84   1.209   0.980   4.182 -0.3696 -0.0874  0.7051
   11ETH     H3   85   1.289   1.137   4.139  1.1113  0.0071  0.4306
   11ETH     H4   86   1.396   1.106   4.385 -2.8442  1.1401  0.1962
   11ETH     H5   87   1.464   1.027   4.243 -1.0560  2.6927 -1.1930
   11ETH     H6   88   1.365   0.931   4.359 -2.3612  2.2111  2.2949
   12ETH     C1   89   4.512   0.818   2.090  0.1073  0.1945 -0.2390
   12ETH     C2   90   4.636   0.887   2.023  0.4953 -0.7797  0.1083
   12ETH     H1   91   4.421   0.853   2.043 -0.7766 -1.3570  0.2507
   12ETH     H2   92   4.509   0.829   2.199  1.9507  2.8133 -0.3315
   12ETH     H3   93   4.517   0.714   2.060  1.2966 -0.2187  1.2527
   12ETH     H4   94   4.657   0.987   2.059  0.2345 -0.7535  0.1892
   12ETH     H5   95   4.620   0.896   1.915 -2.8810  0.3924  0.5910
   12ETH     H6   96   4.727   0.830   2.043  1.2725  0.8198  1.3255
   13ETH     C1   97   1.099   0.701   4.261 -1.1310  0.2336 -0.3907
   13ETH     C2   98   1.220   0.633   4.329  0.4449  0.0391  0.8722
   13ETH     H1   99   1.008   0.656   4.300 -1.3793  0.2305 -0.9754
   13ETH     H2  100   1.097   0.689   4.153 -0.6486  0.9278 -0.4843
   13ETH     H3  101   1.088   0.808   4.280 -0.7962  0.2552 -0.3034
   13ETH     H4  102   1.317   0.659   4.287  0.3323  0.6564  0.9834
   13ETH     H5  103   1.199   0.527   4.321 -0.2094  0.3226 -2.5696
   13ETH     H6  104   1.218   0.664   4.434 -2.7106  0.1178  0.8778
   14ETH     C1  105   1.718   3.392   3.988  0.1033  0.2899 -0.3384
   14ETH     C2  106   1.768   3.257   3.930 -0.7867  0.0126  0.2732
   14ETH     H1  107   1.678   3.369   4.087 -0.2713  1.0218 -0.3108
   14ETH     H2  108   1.635   3.430   3.929  0.4596 -1.2149 -1.8743
   14ETH     H3  109   1.791   3.472   3.994  0.6617 -0.2639  0.4103
   14ETH     H4  110   1.843   3.216   3.997 -0.0659 -0.0993 -0.5895
   14ETH     H5  111   1.821   3.282   3.839  0.1040 -0.4198  0.6644
   14ETH     H6  112   1.688   3.184   3.915  0.8949 -1.8708 -0.0669
   15ETH     C1  113   1.095   1.272   3.180 -0.4991 -0.0152  0.9494
   15ETH     C2  114   1.089   1.142   3.104 -0.3595  0.0878 -0.0532
   15ETH     H1  115   1.033   1.263   3.270 -0.3325 -1.0484  0.9770
   15ETH     H2  116   1.070   1.368   3.134  0.3501 -0.3649 -0.3022
   15ETH     H3  117   1.199   1.296   3.205  0.7986 -0.8571 -2.9941
   15ETH     H4  118   0.987   1.105   3.106  0.2470 -1.7101  1.8628
   15ETH     H5  119   1.156   1.072   3.153 -0.3002  0.3089  0.1864
   15ETH     H6  120   1.131   1.165   3.006 -0.9499 -1.1062 -0.5998
   16ETH     C1  121   0.038   1.068   0.335 -0.0836  0.2761 -0.3689
   16ETH     C2  122   0.026   1.105   0.193 -0.0171 -0.3089 -0.2942
   16ETH     H1  123  -0.034   0.987   0.350 -0.5454  0.0794 -3.1193
   16ETH     H2  124   0.027   1.142   0.413 -1.1607 -1.2132  0.9625
   16ETH     H3  125   0.131   1.018   0.365 -0.1876  0.1408 -0.2671
   16ETH     H4  126   0.041   1.012   0.137  2.8541  0.8048 -1.5638
   16ETH     H5  127   0.100   1.175   0.154  0.2380  0.3683  1.3480
   16ETH     H6  128  -0.073   1.149   0.180 -0.9280 -2.8815 -3.7438
   17ETH     C1  129   1.068   3.701   3.981 -0.2590  0.4874 -0.0747
   17ETH     C2  130   1.072   3.771   3.855 -0.5197  0.4141  0.3075
   17ETH     H1  131   0.962   3.680   3.996  0.3418 -3.6399 -0.4024
   17ETH     H2  132   1.097   3.758   4.069 -2.1281  0.9479  0.2900
   17ETH     H3  133   1.122   3.607   3.973 -0.0379  0.6857 -0.9899
   17ETH     H4  134   1.171   3.813   3.839 -0.4113  0.5337  1.2345
   17ETH     H5  135   1.000   3.853   3.848  0.6262  1.5480  1.3410
   17ETH     H6  136   1.049   3.701   3.774 -0.5572 -0.8979  1.4116
   18ETH     C1  137   4.251   3.607   1.823  0.2260  0.1343  0.4257
   18ETH     C2  138   4.109   3.632   1.881 -0.1854  0.0654 -0.2465
   18ETH     H1  139   4.273   3.663   1.732  0.8928 -1.3787 -0.3920
   18ETH     H2  140   4.258   3.499   1.811 -0.4776 -0.2326  2.8730
   18ETH     H3  141   4.322   3.635   1.901 -0.1217 -0.7371  1.0671
   18ETH     H4  142   4.035   3.625   1.802 -0.5954 -0.5201  0.1824
   18ETH     H5  143   4.108   3.734   1.918  0.7598 -0.0253  0.0484
   18ETH     H6  144   4.094   3.561   1.962 -0.7174 -1.4890 -1.6453
   19ETH     C1  145   1.330   3.711   4.251  0.1425 -0.4119 -1.0287
   19ETH     C2  146   1.396   3.794   4.369 -0.3178  0.0611 -0.4374
   19ETH     H1  147   1.363   3.607   4.256 -0.6135 -0.7067 -1.9162
   19ETH     H2  148   1.351   3.760   4.156  2.0667  1.9535  0.5093
   19ETH     H3  149   1.226   3.714   4.285  0.4728  0.5091 -0.0412
   19ETH     H4  150   1.501   3.766   4.376  0.2694  1.5445 -2.2953
   19ETH     H5  151   1.346   3.759   4.459 -0.4161 -1.2768 -0.9796
   19ETH     H6  152   1.380   3.901   4.359  0.3186  0.3515  1.2888
   20ETH     C1  153   1.685   2.163   4.348  0.3055  0.4776  0.9197
   20ETH     C2  154   1.688   2.081   4.480 -0.3964 -0.4240  0.5426
   20ETH     H1  155   1.742   2.256   4.355  1.3111  0.0924 -1.3891
   20ETH     H2  156   1.580   2.193   4.340  0.1487  0.0289  1.2592
   20ETH     H3  157   1.714   2.115   4.255 -1.2803  0.2431  0.5232
   20ETH     H4  158   1.618   1.997   4.480  0.0780 -0.8357 -0.6794
   20ETH     H5  159   1.652   2.154   4.553 -2.4676  1.2332 -1.9333
   20ETH     H6  160   1.783   2.034   4.504 -0.7946 -2.5125 -1.5647
   21ETH     C1  161   0.102   0.613   4.650 -0.7890 -0.2546 -0.2180
   21ETH     C2  162   0.060   0.477   4.594 -0.3744  0.6820 -0.1482
   21ETH     H1  163   0.206   0.640   4.631 -1.6232  2.2643 -1.5369
   21ETH     H2  164   0.085   0.619   4.758  0.6673  0.8621 -0.0250
   21ETH     H3  165   0.044   0.693   4.605 -0.3051  0.7825  0.9289
   21ETH     H4  166   0.058   0.491   4.486 -1.9018 -0.8718 -0.3581
   21ETH     H5  167  -0.036   0.441   4.632 -0.8088  0.3959 -1.4862
   21ETH     H6  168   0.136   0.408   4.632  1.2800  2.4238 -0.1078
   22ETH     C1  169   2.978   1.064   2.265 -0.5075 -0.0205 -0.7149
   22ETH     C2  170   3.032   0.923   2.247 -0.1117 -0.1928 -0.0074
   22ETH     H1  171   2.975   1.090   2.371  0.0067 -0.5469 -0.5650
   22ETH     H2  172   2.882   1.079   2.216 -1.1282  2.0736  0.9987
   22ETH     H3  173   3.046   1.137   2.222 -1.7373  1.7185  0.1791
   22ETH     H4  174   2.974   0.848   2.301  2.8528 -1.5812  1.5236
   22ETH     H5  175   3.137   0.928   2.277 -0.2517 -1.3729  0.7768
   22ETH     H6  176   3.032   0.894   2.142  1.0485 -2.6357  0.5803
   23ETH     C1  177   3.320   1.326   1.508 -0.1201 -0.2505 -0.6383
   23ETH     C2  178   3.207   1.360   1.597  0.1093 -0.1123 -1.1629
   23ETH     H1  179   3.378   1.251   1.561 -0.5006  0.0860  0.2861
   23ETH     H2  180   3.391   1.405   1.483 -0.2373  0.5948  1.4982
   23ETH     H3  181   3.288   1.283   1.414 -1.3581 -5.2536  1.7568
   23ETH     H4  182   3.136   1.281   1.621 -1.3961  1.6430  0.5416
   23ETH     H5  183   3.139   1.433   1.553  0.7443  1.3642  0.2082
   23ETH     H6  184   3.239   1.394   1.695  1.9990  0.8519 -2.0649
   24ETH     C1  185   3.848   4.596   0.325 -0.0474  0.2489 -0.0657
   24ETH     C2  186   3.902   4.494   0.421 -0.0011 -0.1407 -0.5675
   24ETH     H1  187   3.739   4.607   0.329  0.0780  1.1023  2.3952
   24ETH     H2  188   3.869   4.562   0.223  1.0892 -0.7517  0.4798
   24ETH     H3  189   3.888   4.696   0.342 -3.2629  1.3813  1.7450
   24ETH     H4  190   4.010   4.508   0.425 -0.2064  1.3527  1.9079
   24ETH     H5  191   3.884   4.392   0.386 -2.7911 -0.8127  2.3191
   24ETH     H6  192   3.858   4.496   0.521 -0.1980  1.0447 -0.6647
   25ETH     C1  193   0.585   4.097   2.356  0.5448 -0.8371  1.0066
   25ETH     C2  194   0.540   4.016   2.468  0.7506  0.5484 -0.6617
   25ETH     H1  195   0.584   4.196   2.401 -2.0086 -0.4182  0.1966
   25ETH     H2  196   0.506   4.092   2.281 -0.9175 -0.7303  2.4981
   25ETH     H3  197   0.681   4.079   2.306 -0.3253 -0.0466 -1.0726
   25ETH     H4  198   0.437   4.022   2.506  1.1309 -2.8658  1.3097
   25ETH     H5  199   0.599   4.037   2.557  0.5850  0.1628 -0.4581
   25ETH     H6  200   0.547   3.911   2.444  2.1337  0.5495 -0.3206
   26ETH     C1  201   1.968   4.191   2.691 -0.0843  0.5358 -0.3979
   26ETH     C2  202   1.853   4.117   2.767 -0.0260  0.1769 -0.5775
   26ETH     H1  203   1.946   4.294   2.664  0.7449  0.7238 -0.3694
   26ETH     H2  204   2.002   4.121   2.615 -1.5975  0.2464 -0.8539
   26ETH     H3  205   2.045   4.212   2.765  0.8916  0.8403 -1.4858
   26ETH     H4  206   1.764   4.112   2.704 -1.4637  1.4795  1.2198
   26ETH     H5  207   1.822   4.169   2.858  1.5433  0.1825 -0.0250
   26ETH     H6  208   1.884   4.014   2.781 -2.3206 -0.7223 -1.5640
   27ETH     C1  209   0.213   1.712   1.482  0.7323 -0.8133 -0.5106
   27ETH     C2  210   0.100   1.633   1.546 -0.1626 -0.1225 -0.7020
   27ETH     H1  211   0.267   1.650   1.411  1.0521  0.6017 -1.5474
   27ETH     H2  212   0.283   1.733   1.563 -1.5279 -1.4159  1.7310
   27ETH     H3  213   0.184   1.803   1.429  1.0899  0.2317  1.0037
   27ETH     H4  214   0.055   1.581   1.461 -0.0716 -0.6535 -0.4250
   27ETH     H5  215   0.034   1.705   1.595 -0.1285 -1.1582  0.9407
   27ETH     H6  216   0.144   1.560   1.613 -1.1215 -0.4492 -0.4106
   28ETH     C1  217   2.496   1.104   0.503 -0.3178 -0.0423 -0.1622
   28ETH     C2  218   2.410   1.130   0.381  0.7004 -0.3447  0.6298
   28ETH     H1  219   2.486   1.192   0.567 -1.8889 -0.8992  0.8392
   28ETH     H2  220   2.602   1.104   0.477  0.1374  2.5673  1.2963
   28ETH     H3  221   2.455   1.025   0.566 -3.1206 -1.4090 -3.4092
   28ETH     H4  222   2.445   1.220   0.331  0.0600 -0.8116 -0.7254
   28ETH     H5  223   2.306   1.148   0.408  0.1919  0.8925 -1.8621
   28ETH     H6  224   2.425   1.045   0.314 -0.9894 -0.1258 -0.0727
   29ETH     C1  225   0.410   4.190   2.854 -0.0193  0.6244 -0.4045
   29ETH     C2  226   0.543   4.197   2.782 -0.9558 -0.5642  0.1434
   29ETH     H1  227   0.338   4.267   2.825  0.9581  2.2332  1.1797
   29ETH     H2  228   0.435   4.216   2.957  0.2877 -0.8602 -0.0901
   29ETH     H3  229   0.366   4.091   2.847  0.3610  0.2585  1.7619
   29ETH     H4  230   0.599   4.283   2.817 -1.6851 -0.3851  0.8943
   29ETH     H5  231   0.520   4.210   2.676 -1.4124  0.5812  0.3732
   29ETH     H6  232   0.605   4.108   2.791 -0.4885 -0.1231  1.4598
   30ETH     C1  233   4.222   3.570   3.240  0.5654 -0.5249 -0.1150
   30ETH     C2  234   4.193   3.450   3.154  0.1456  0.3691 -0.2777
   30ETH     H1  235   4.327   3.595   3.230  0.3658  0.0166 -1.0390
   30ETH     H2  236   4.201   3.556   3.346  0.7605  0.8882  0.1307
   30ETH     H3  237   4.166   3.654   3.197  1.1340  0.6311  1.3210
   30ETH     H4  238   4.095   3.405   3.171 -0.1804 -0.0271 -2.8384
   30ETH     H5  239   4.256   3.366   3.181 -0.4304 -0.9488 -2.7480
   30ETH     H6  240   4.194   3.467   3.046 -1.4436  2.5304 -0.0268
   31ETH     C1  241   2.588   4.452   0.301  0.6741 -0.4264  0.7746
   31ETH     C2  242   2.696   4.394   0.209  0.0319 -0.2706  0.0571
   31ETH     H1  243   2.561   4.387   0.384  1.2628 -0.1811  1.1672
   31ETH     H2  244   2.499   4.470   0.241  2.1170 -1.2225 -1.7145
   31ETH     H3  245   2.617   4.548   0.345 -0.2432  0.4740 -0.5035
   31ETH     H4  246   2.777   4.350   0.267  0.4153  0.4296  0.0540
   31ETH     H5  247   2.742   4.473   0.151 -0.1053 -0.2793 -0.0649
   31ETH     H6  248   2.656   4.317   0.142 -0.0670  0.1470 -0.3725
   32ETH     C1  249   2.499   0.225   2.044 -0.1035 -0.5075 -0.4977
   32ETH     C2  250   2.510   0.365   1.995 -0.6155  0.2932 -1.0186
   32ETH     H1  251   2.500   0.155   1.961  2.7532  0.3267 -1.2597
   32ETH     H2  252   2.410   0.212   2.106  1.7814  0.4824  2.6568
   32ETH     H3  253   2.587   0.194   2.101 -1.0705 -1.1739  0.6895
   32ETH     H4  254   2.606   0.368   1.944 -0.5185 -1.5889 -1.0018
   32ETH     H5  255   2.509   0.427   2.084  0.6946 -2.1130  0.7770
   32ETH     H6  256   2.425   0.401   1.936 -0.6016  0.1020 -1.1569
   33ETH     C1  257   2.578   2.195   1.553 -0.3926 -0.3568 -0.7743
   33ETH     C2  258   2.511   2.122   1.438 -0.4331 -0.6433  0.1430
   33ETH     H1  259   2.659   2.255   1.513  1.0569  0.1512  2.5802
   33ETH     H2  260   2.625   2.119   1.615  1.7552  1.1457 -0.4443
   33ETH     H3  261   2.512   2.253   1.618  0.6445  0.1882 -0.1764
   33ETH     H4  262   2.443   2.049   1.483  1.9097 -1.1137  3.2473
   33ETH     H5  263   2.579   2.049   1.394  2.2762  0.4616  2.1512
   33ETH     H6  264   2.477   2.191   1.360 -2.0001 -0.4169  0.9731
   34ETH     C1  265   3.829   3.061   1.579 -0.0189  0.2016  0.3068
   34ETH     C2  266   3.758   3.161   1.485  0.1012 -0.2944 -0.3506
   34ETH     H1  267   3.820   3.100   1.681 -0.1732 -1.4587  0.9568
   34ETH     H2  268   3.935   3.049   1.556  0.0067 -3.5749  1.7008
   34ETH     H3  269   3.777   2.966   1.571 -2.2595  1.2457  1.4958
   34ETH     H4  270   3.662   3.186   1.530  0.6136 -1.9658  1.8180
   34ETH     H5  271   3.729   3.115   1.390  0.4495 -1.1451 -0.0553
   34ETH     H6  272   3.830   3.242   1.475  1.3630 -1.4097 -0.6193
   35ETH     C1  273   4.898   0.092   0.093  0.3662  0.3875  0.6495
   35ETH     C2  274   4.956   0.204   0.003 -0.1261  0.1805 -0.2155
   35ETH     H1  275   4.902   0.129   0.196  1.8764 -0.5685  0.9760
   35ETH     H2  276   4.953  -0.002   0.089  1.6747  1.1401  0.3801
   35ETH     H3  277   4.792   0.079   0.072  0.3571 -1.8983  1.7711
   35ETH     H4  278   4.954   0.178  -0.103  0.8965 -1.5818  0.1575
   35ETH     H5  279   5.058   0.237   0.022 -0.0694  1.2392 -2.1273
   35ETH     H6  280   4.893   0.291   0.023 -2.9794 -1.3355 -1.8762
   36ETH     C1  281   0.706   1.992   0.888  0.1548  0.3050  0.2908
   36ETH     C2  282   0.697   2.140   0.843 -0.0622  0.2569  0.1317
   36ETH     H1  283   0.680   1.983   0.993  0.0225  1.8390  0.4085
   36ETH     H2  284   0.803   1.946   0.870 -0.2674  0.3045 -2.3947
   36ETH     H3  285   0.632   1.943   0.825  1.8941  0.4896 -2.0657
   36ETH     H4  286   0.765   2.168   0.763 -1.7437 -0.3294 -1.5650
   36ETH     H5  287   0.730   2.207   0.923  1.0688 -0.4247  0.2672
   36ETH     H6  288   0.597   2.171   0.814 -1.2206 -1.3576  2.1155
   37ETH     C1  289   0.026   0.713   0.192  0.5141  0.3957  0.5275
   37ETH     C2  290  -0.021   0.574   0.158 -0.2978  0.3351  0.3853
   37ETH     H1  291   0.056   0.764   0.101  0.0316  1.3350  0.8777
   37ETH     H2  292   0.105   0.714   0.266  1.3320 -1.0899 -0.2840
   37ETH     H3  293  -0.057   0.771   0.234  0.0624  0.3493 -0.2762
   37ETH     H4  294  -0.056   0.504   0.235 -0.4575 -1.3757 -1.1804
   37ETH     H5  295   0.051   0.521   0.097  1.2527  1.0721  1.5118
   37ETH     H6  296  -0.114   0.568   0.101 -0.3872 -0.9167  0.6222
   38ETH     C1  297   0.905   1.856   1.485  0.0314  0.5808 -0.4558
   38ETH     C2  298   0.907   1.711   1.549  0.5319 -1.1997  0.4111
   38ETH     H1  299   0.828   1.920   1.528 -1.1727 -1.5944  0.8417
   38ETH     H2  300   0.904   1.834   1.378  1.6233  1.6935 -0.7297
   38ETH     H3  301   0.995   1.917   1.479  1.4433 -1.4297 -1.0480
   38ETH     H4  302   0.923   1.715   1.657 -1.4393 -0.0337  0.7071
   38ETH     H5  303   0.985   1.654   1.498  0.8506 -0.8005  0.4413
   38ETH     H6  304   0.821   1.651   1.521  1.2295 -2.4146  0.7980
   39ETH     C1  305   0.269   2.398   0.631 -0.1151 -0.4137  0.0494
   39ETH     C2  306   0.361   2.510   0.566  0.2805 -0.1859 -0.0914
   39ETH     H1  307   0.242   2.408   0.737  1.0646 -0.8077  0.4008
   39ETH     H2  308   0.310   2.297   0.628 -0.2924 -0.4608 -1.9137
   39ETH     H3  309   0.180   2.378   0.571 -1.5663  1.1094  1.5544
   39ETH     H4  310   0.382   2.490   0.461  1.7634 -2.7202  0.5904
   39ETH     H5  311   0.451   2.500   0.626  0.1777  0.9341  0.2721
   39ETH     H6  312   0.328   2.612   0.582  2.7056  0.4701  1.0827
   40ETH     C1  313   4.811   3.670   2.833  0.5377  0.8485 -0.0703
   40ETH     C2  314   4.921   3.760   2.789  0.0019  0.6121 -0.2360
   40ETH     H1  315   4.849   3.579   2.881  0.2460  1.2421  0.9351
   40ETH     H2  316   4.758   3.635   2.745 -0.0927  3.9451 -1.0601
   40ETH     H3  317   4.732   3.703   2.900 -0.1854 -0.5856 -0.1959
   40ETH     H4  318   4.876   3.838   2.727  0.1975  0.8806 -0.0440
   40ETH     H5  319   4.999   3.710   2.732  0.3011 -0.0591  0.7451
   40ETH     H6  320   4.973   3.808   2.872 -0.4556  1.5115 -0.4549
   41ETH     C1  321   2.941   0.536   2.552 -0.3551  0.1122  0.0587
   41ETH     C2  322   2.930   0.675   2.612 -0.2496 -0.1466 -0.2262
   41ETH     H1  323   2.979   0.537   2.450  1.8013 -2.5885  0.7227
   41ETH     H2  324   2.842   0.493   2.539  0.1027 -1.0635  0.3249
   41ETH     H3  325   2.997   0.472   2.620 -0.4181 -1.1287 -1.0416
   41ETH     H4  326   2.939   0.676   2.720  0.6499  3.0300 -0.2291
   41ETH     H5  327   2.844   0.733   2.578  0.2141  1.3208  0.9977
   41ETH     H6  328   3.013   0.742   2.592 -2.2098  2.6777  0.4667
   42ETH     C1  329   1.065   2.901   0.771  0.0811 -0.3702  0.2121
   42ETH     C2  330   1.134   2.847   0.646 -0.0877  0.3848  0.3132
   42ETH     H1  331   1.122   2.889   0.863 -0.0258 -1.8660  0.1053
   42ETH     H2  332   0.971   2.847   0.787  0.0729 -0.5080 -0.2896
   42ETH     H3  333   1.048   3.008   0.757 -2.4987 -0.8697 -1.2356
   42ETH     H4  334   1.151   2.739   0.650 -0.4924  0.3122  0.0956
   42ETH     H5  335   1.222   2.899   0.608  1.7598 -3.3117 -0.9759
   42ETH     H6  336   1.062   2.841   0.565  2.1784  1.3825 -1.8819
   43ETH     C1  337   0.231   2.050   0.839 -0.8285  0.2385  0.2363
   43ETH     C2  338   0.099   2.088   0.776 -0.5986 -0.0204 -0.0407
   43ETH     H1  339   0.312   2.061   0.768  1.4622 -0.3790  2.6025
   43ETH     H2  340   0.232   1.950   0.881 -1.3026  0.8819  1.8988
   43ETH     H3  341   0.264   2.116   0.920  2.2889  0.8032 -1.3498
   43ETH     H4  342   0.094   2.196   0.760 -0.8955  0.1879  1.3265
   43ETH     H5  343   0.013   2.067   0.839 -1.5189 -1.9800 -1.8128
   43ETH     H6  344   0.072   2.036   0.684 -1.0519 -1.3155  0.7936
   44ETH     C1  345   3.005   0.276   2.211 -0.7523 -0.5925  0.3859
   44ETH     C2  346   2.910   0.396   2.201 -0.0442 -0.4277 -0.0426
   44ETH     H1  347   3.085   0.280   2.137  0.5962  0.0898  1.8334
   44ETH     H2  348   2.958   0.179   2.192  0.8803 -1.1237 -1.3037
   44ETH     H3  349   3.055   0.271   2.308  0.0188 -1.7569 -0.0489
   44ETH     H4  350   2.840   0.393   2.285  0.0447 -0.6825  0.0221
   44ETH     H5  351   2.859   0.403   2.105 -0.4181 -1.9749  0.0199
   44ETH     H6  352   2.967   0.488   2.216 -0.0496 -0.2097 -1.2782
   45ETH     C1  353   0.532   3.912   1.968  0.2037 -0.8832 -0.1171
   45ETH     C2  354   0.422   3.810   1.997  0.0316 -0.4211  1.0025
   45ETH     H1  355   0.544   3.987   2.046  1.9752 -0.0376 -1.1493
   45ETH     H2  356   0.521   3.966   1.874 -0.2670  0.4471  0.6757
   45ETH     H3  357   0.628   3.860   1.971 -0.5342 -2.2890  1.9243
   45ETH     H4  358   0.432   3.724   1.931 -0.4645  0.7799 -0.6890
   45ETH     H5  359   0.323   3.855   2.001  0.2693  0.0689  1.4634
   45ETH     H6  360   0.430   3.763   2.095  1.0822 -0.3275  0.9732
   46ETH     C1  361   0.362   3.508   2.415 -0.3248 -0.7273 -0.2152
   46ETH     C2  362   0.424   3.623   2.324  0.1945  0.0024  0.4263
   46ETH     H1  363   0.444   3.459   2.467  1.0421  2.3628  0.8140
   46ETH     H2  364   0.299   3.444   2.354 -1.4086  0.0768  0.0237
   46ETH     H3  365   0.300   3.563   2.486  1.5177 -0.7233  1.4684
   46ETH     H4  366   0.477   3.696   2.384  2.1145 -1.5584  0.7296
   46ETH     H5  367   0.343   3.671   2.270  1.0532  0.9328 -0.0583
   46ETH     H6  368   0.487   3.587   2.243  0.1136  0.6009  0.0917
   47ETH     C1  369   1.150   2.513   0.931 -0.2667 -0.1048  0.0283
   47ETH     C2  370   1.146   2.400   0.828 -0.1762 -0.3151 -0.1094
   47ETH     H1  371   1.217   2.511   1.017  0.2224 -1.1945 -0.3581
   47ETH     H2  372   1.050   2.530   0.971 -1.0151 -1.4955 -1.1656
   47ETH     H3  373   1.178   2.605   0.880 -2.2708 -0.5091 -1.9424
   47ETH     H4  374   1.140   2.297   0.865 -1.1538  0.9925  3.8640
   47ETH     H5  375   1.241   2.415   0.778  0.6932  0.9810  1.8174
   47ETH     H6  376   1.068   2.413   0.753 -0.3796 -1.5258 -0.1299
   48ETH     C1  377   3.513   4.882   2.078  0.2408  0.4560  0.7421
   48ETH     C2  378   3.590   4.786   2.163 -0.6071 -0.1550  0.6001
   48ETH     H1  379   3.410   4.847   2.068  0.5319 -0.3640  0.5386
   48ETH     H2  380   3.564   4.901   1.983  1.4542 -0.7256  1.1340
   48ETH     H3  381   3.516   4.975   2.134  0.2755  0.0600  1.3973
   48ETH     H4  382   3.698   4.804   2.165 -0.7332  1.0479 -1.0912
   48ETH     H5  383   3.578   4.688   2.116 -1.3759  0.5204 -0.6607
   48ETH     H6  384   3.550   4.781   2.264  0.6150  1.1997  1.1763
   49ETH     C1  385   4.572   3.472   3.051 -0.1102  0.0715  0.5885
   49ETH     C2  386   4.661   3.343   3.036  0.0434  0.1615 -0.3465
   49ETH     H1  387   4.472   3.452   3.014 -1.3164 -1.2532  4.1365
   49ETH     H2  388   4.614   3.564   3.009 -0.4542  1.5415  3.2493
   49ETH     H3  389   4.559   3.498   3.156 -2.0635  1.1634  0.1166
   49ETH     H4  390   4.668   3.312   2.932  0.4831 -1.2004  0.0662
   49ETH     H5  391   4.616   3.263   3.095  1.8015 -0.9002 -0.3507
   49ETH     H6  392   4.763   3.357   3.073  0.4808  0.2351 -1.5338
   50ETH     C1  393   2.256   2.239   3.875 -0.2017  0.0086  0.0407
   50ETH     C2  394   2.110   2.249   3.841  0.5079 -0.1963  0.6068
   50ETH     H1  395   2.306   2.219   3.780  0.0189 -1.7303  0.4965
   50ETH     H2  396   2.266   2.159   3.949  0.4706  0.8708  0.9096
   50ETH     H3  397   2.303   2.325   3.923 -1.4990  0.6465  0.1970
   50ETH     H4  398   2.054   2.260   3.934 -2.6731 -0.9129 -1.0703
   50ETH     H5  399   2.080   2.148   3.811  0.0604 -0.3154  1.4234
   50ETH     H6  400   2.090   2.332   3.773 -1.1100  0.0267  1.3109
   51ETH     C1  401   2.302   4.235   2.037  0.4367  0.3320  0.1601
   51ETH     C2  402   2.152   4.203   2.068 -0.4141 -0.7470  0.3997
   51ETH     H1  403   2.329   4.235   1.932  2.3044  0.7516  0.5988
   51ETH     H2  404   2.372   4.171   2.089  1.4635  2.9973  2.3263
   51ETH     H3  405   2.324   4.335   2.076  0.1634  1.2260 -1.8446
   51ETH     H4  406   2.134   4.269   2.152  2.3823  1.8873 -0.8497
   51ETH     H5  407   2.127   4.103   2.101 -0.1970 -1.2479 -0.8778
   51ETH     H6  408   2.080   4.223   1.989 -1.4151  0.6935  1.6158
   52ETH     C1  409   4.451   3.363   2.065  0.4720 -0.8738 -0.7498
   52ETH     C2  410   4.355   3.424   2.168  0.3890  0.3634 -0.2271
   52ETH     H1  411   4.521   3.298   2.117  2.2765  1.0120 -0.7042
   52ETH     H2  412   4.511   3.449   2.034  0.6225 -0.5062  0.4928
   52ETH     H3  413   4.398   3.318   1.981  0.4477  1.8027 -2.2863
   52ETH     H4  414   4.328   3.357   2.250  0.1404  3.8023  2.7710
   52ETH     H5  415   4.269   3.466   2.115 -0.1213  0.7122  0.8425
   52ETH     H6  416   4.395   3.509   2.224 -0.2358 -0.1901  1.1066
   53ETH     C1  417   1.698   4.185   2.359  0.2337 -0.0061 -0.0346
   53ETH     C2  418   1.782   4.063   2.331  0.8467 -0.5617 -0.2344
   53ETH     H1  419   1.690   4.250   2.273  1.8300  0.4632  0.1458
   53ETH     H2  420   1.748   4.242   2.437  0.0674 -0.0501  0.1044
   53ETH     H3  421   1.599   4.161   2.397  0.0345 -0.9457 -1.1071
   53ETH     H4  422   1.882   4.086   2.293  0.7056  0.2246 -0.1438
   53ETH     H5  423   1.732   4.000   2.258 -0.9377 -0.6866  1.0284
   53ETH     H6  424   1.791   3.998   2.418  1.2074 -0.8339 -0.4730
   54ETH     C1  425   2.770   0.793   2.011  0.3667  0.7941  0.1799
   54ETH     C2  426   2.853   0.672   1.987  1.0245  0.2423  0.1525
   54ETH     H1  427   2.732   0.833   1.917 -0.4085  1.5328  0.7847
   54ETH     H2  428   2.832   0.872   2.052  2.8997  0.3737 -2.5500
   54ETH     H3  429   2.696   0.757   2.083  1.6052 -4.3754 -0.7424
   54ETH     H4  430   2.893   0.685   1.887 -0.1684  2.2344 -0.0998
   54ETH     H5  431   2.799   0.577   1.984  1.0058  0.2699 -0.5405
   54ETH     H6  432   2.935   0.659   2.059  0.3329  2.7101  1.4891
   55ETH     C1  433   3.566   1.587   3.848  0.6039 -0.5446  0.2460
   55ETH     C2  434   3.452   1.485   3.861  0.2706  0.1448 -0.0504
   55ETH     H1  435   3.667   1.553   3.873  0.6488 -0.7937 -0.2472
   55ETH     H2  436   3.556   1.667   3.921  1.0825 -1.6549  1.5555
   55ETH     H3  437   3.560   1.638   3.752 -3.0325  0.5309  0.9134
   55ETH     H4  438   3.457   1.426   3.953 -1.4851 -1.5515 -0.9864
   55ETH     H5  439   3.475   1.422   3.775  0.3669  2.5989 -1.9255
   55ETH     H6  440   3.354   1.529   3.845  0.9650  1.3168 -1.2418
   56ETH     C1  441   0.069   1.438   4.804  1.1936 -0.4894  0.2565
   56ETH     C2  442   0.221   1.443   4.791  0.7411 -0.1209 -1.2877
   56ETH     H1  443   0.013   1.496   4.730  0.2764  2.1117  2.7692
   56ETH     H2  444   0.027   1.485   4.893 -0.6412 -1.5703  0.0337
   56ETH     H3  445   0.039   1.334   4.820 -0.3973 -0.0456  0.3588
   56ETH     H4  446   0.250   1.548   4.800 -0.9641  0.2712  0.2157
   56ETH     H5  447   0.251   1.408   4.693  2.9081  0.3104 -0.8318
   56ETH     H6  448   0.272   1.390   4.871 -1.8530 -0.1883  0.4357
   57ETH     C1  449   1.395   2.438   3.613 -0.4538  0.3208  0.3913
   57ETH     C2  450   1.530   2.473   3.547  0.0471  0.0591  1.0835
   57ETH     H1  451   1.395   2.462   3.720 -3.6919 -0.3435  0.6418
   57ETH     H2  452   1.366   2.333   3.611  0.2156  0.1489 -1.0556
   57ETH     H3  453   1.312   2.498   3.577 -0.4368  1.0128  1.4509
   57ETH     H4  454   1.562   2.576   3.566 -0.6624  0.2767  1.1221
   57ETH     H5  455   1.538   2.449   3.441  0.5166  2.5739  0.4772
   57ETH     H6  456   1.612   2.412   3.582  0.3785  1.5084  3.0348
   58ETH     C1  457   2.746   1.798   3.405 -0.2640 -0.0585 -0.3741
   58ETH     C2  458   2.676   1.832   3.535 -0.4206 -0.1828 -0.1265
   58ETH     H1  459   2.682   1.825   3.320  0.7150  1.5134 -0.6573
   58ETH     H2  460   2.777   1.694   3.406 -0.1161 -0.0415 -1.5142
   58ETH     H3  461   2.832   1.863   3.388 -2.4242  2.9142 -0.7217
   58ETH     H4  462   2.574   1.796   3.525 -0.5685  0.5852 -1.7515
   58ETH     H5  463   2.684   1.939   3.552  2.4689 -0.1580 -0.9769
   58ETH     H6  464   2.734   1.777   3.609 -0.8944 -0.4717  0.0312
   59ETH     C1  465   0.483   1.627   0.219 -0.4325  0.7700 -0.3606
   59ETH     C2  466   0.492   1.477   0.167  0.2369  0.4416 -0.2007
   59ETH     H1  467   0.383   1.670   0.223 -0.7449  0.0897 -0.8015
   59ETH     H2  468   0.536   1.689   0.147 -1.4648  0.7288 -1.1839
   59ETH     H3  469   0.531   1.644   0.315  0.0300  1.6550 -0.7340
   59ETH     H4  470   0.441   1.419   0.244 -1.0060  2.2810  0.4475
   59ETH     H5  471   0.597   1.452   0.180  0.6183  1.3113 -1.4719
   59ETH     H6  472   0.448   1.466   0.068 -0.2402 -1.1315  0.1623
   60ETH     C1  473   1.275   1.058   0.525  0.1289 -0.3802  0.0686
   60ETH     C2  474   1.228   0.926   0.456 -1.0438  0.5220 -0.0736
   60ETH     H1  475   1.218   1.085   0.614 -1.6924 -0.8412 -0.9086
   60ETH     H2  476   1.268   1.146   0.460 -1.2322 -0.4236  0.1171
   60ETH     H3  477   1.378   1.039   0.553  0.1173 -0.8122 -0.1705
   60ETH     H4  478   1.124   0.924   0.422 -0.8109 -0.9032 -0.7558
   60ETH     H5  479   1.246   0.845   0.526  1.4550  3.3702  2.8890
   60ETH     H6  480   1.286   0.901   0.367  0.8832 -1.1408  1.5600
   61ETH     C1  481   0.163   1.398   4.378  0.4850  0.2085 -0.5246
   61ETH     C2  482   0.298   1.447   4.314 -0.3590  0.6284 -0.0775
   61ETH     H1  483   0.098   1.374   4.294  0.3460 -0.1507 -0.3184
   61ETH     H2  484   0.132   1.478   4.445 -0.2134 -1.4721  1.2406
   61ETH     H3  485   0.175   1.303   4.430  0.7968  1.0465  0.9746
   61ETH     H4  486   0.281   1.546   4.273 -1.0434  0.4905 -0.1305
   61ETH     H5  487   0.345   1.379   4.242 -2.2200 -1.4416  0.5446
   61ETH     H6  488   0.376   1.451   4.391  0.3089 -2.0212 -0.5004
   62ETH     C1  489   3.900   0.616   2.572 -0.3306  0.2309  0.0607
   62ETH     C2  490   3.957   0.721   2.473 -0.1100 -0.0076  0.1976
   62ETH     H1  491   3.952   0.603   2.667 -1.5235 -2.3090  0.4494
   62ETH     H2  492   3.892   0.515   2.532 -2.5539  0.1900  0.4833
   62ETH     H3  493   3.798   0.641   2.601 -0.1099  0.8354  0.3341
   62ETH     H4  494   3.922   0.719   2.369 -0.0102  0.6483  0.1452
   62ETH     H5  495   4.065   0.708   2.466  0.1820 -1.0736  4.4193
   62ETH     H6  496   3.937   0.821   2.513 -0.0325  0.2846 -0.4607
   63ETH     C1  497   4.004   2.811   1.275  0.7564 -1.0035  0.4044
   63ETH     C2  498   4.087   2.930   1.239 -0.1924  0.0825  0.1785
   63ETH     H1  499   3.902   2.836   1.246  0.9391 -0.2738  0.3678
   63ETH     H2  500   4.013   2.800   1.383 -2.0298 -1.0151  0.7215
   63ETH     H3  501   4.025   2.717   1.225 -0.5540 -0.6990 -0.7775
   63ETH     H4  502   4.091   2.959   1.134 -1.7263  0.5558  0.2261
   63ETH     H5  503   4.190   2.911   1.267 -0.0809 -0.2671 -0.4582
   63ETH     H6  504   4.045   3.011   1.298  0.1800  1.4479 -1.3591
   64ETH     C1  505   1.919   2.070   2.942 -0.4310 -0.1365  0.4298
   64ETH     C2  506   1.841   1.945   2.939  0.1877  1.1388 -0.9560
   64ETH     H1  507   1.999   2.074   2.868 -0.8699 -1.5879 -0.1702
   64ETH     H2  508   1.956   2.088   3.042  0.1582  1.1647  0.0019
   64ETH     H3  509   1.846   2.148   2.919 -1.6973 -0.1070  4.0322
   64ETH     H4  510   1.757   1.938   2.869  0.3540 -0.5901 -1.0156
   64ETH     H5  511   1.795   1.928   3.036 -0.0770 -0.1378 -1.2837
   64ETH     H6  512   1.909   1.861   2.924 -1.8694 -0.8314  0.0804
   65ETH     C1  513   2.073   3.825   0.450  0.1886 -0.6245  0.3946
   65ETH     C2  514   1.994   3.961   0.450 -0.5821 -0.3855  0.7136
   65ETH     H1  515   2.177   3.851   0.430  0.4456 -2.3782 -0.7755
   65ETH     H2  516   2.033   3.760   0.373 -1.5064 -0.4780  1.0928
   65ETH     H3  517   2.070   3.780   0.550  1.3142  2.7384  2.1149
   65ETH     H4  518   1.886   3.952   0.460 -0.9566  0.6195 -1.8769
   65ETH     H5  519   2.015   4.006   0.354  1.3514 -1.9296  0.3344
   65ETH     H6  520   2.031   4.025   0.531 -0.5029 -1.9444  1.9754
   66ETH     C1  521   0.548   2.603   0.939  0.0698 -0.0254  0.9740
   66ETH     C2  522   0.692   2.613   1.000 -0.0623  0.0772  0.4764
   66ETH     H1  523   0.502   2.701   0.928 -0.6623 -0.5492 -1.0035
   66ETH     H2  524   0.487   2.555   1.016 -0.2351  0.9969  1.3977
   66ETH     H3  525   0.532   2.557   0.842  0.4218 -1.9582  1.7856
   66ETH     H4  526   0.728   2.512   1.021  1.4035  0.5753  0.4765
   66ETH     H5  527   0.692   2.677   1.088  0.5076 -1.8762  1.9630
   66ETH     H6  528   0.747   2.664   0.921 -1.7406  0.2867 -0.6105
   67ETH     C1  529   1.440   0.431   3.914  0.4603  0.7194  0.1546
   67ETH     C2  530   1.317   0.447   4.002 -0.1452  0.5359 -0.1705
   67ETH     H1  531   1.414   0.458   3.811 -0.2188  0.4905  0.2566
   67ETH     H2  532   1.470   0.327   3.922 -0.6832  0.3346 -0.2499
   67ETH     H3  533   1.530   0.483   3.947  0.5849 -0.3455  1.6111
   67ETH     H4  534   1.294   0.553   3.989  1.0371  0.8016 -0.1366
   67ETH     H5  535   1.332   0.417   4.105  0.9939  0.1564 -0.4386
   67ETH     H6  536   1.240   0.393   3.946  1.0458 -1.1178 -0.2960
   68ETH     C1  537   1.299   1.412   4.791 -0.3142  0.1656 -0.4922
   68ETH     C2  538   1.314   1.558   4.747  0.0747  0.3740 -0.0250
   68ETH     H1  539   1.365   1.350   4.730  0.5100  0.9721 -0.4519
   68ETH     H2  540   1.195   1.392   4.769 -1.2102  2.3503  1.3693
   68ETH     H3  541   1.322   1.387   4.894  1.2752  2.7243 -0.1177
   68ETH     H4  542   1.418   1.590   4.751  1.4944 -3.7714  1.4063
   68ETH     H5  543   1.248   1.631   4.796  0.5977  0.6016  0.3465
   68ETH     H6  544   1.309   1.571   4.639 -0.4759 -0.9166 -0.1713
   69ETH     C1  545   1.737   0.396   3.269 -0.3298 -0.0370  0.1624
   69ETH     C2  546   1.795   0.294   3.172 -0.6787 -0.4413 -0.2649
   69ETH     H1  547   1.826   0.436   3.319  2.7664 -1.9127 -3.3097
   69ETH     H2  548   1.667   0.358   3.343 -0.9584  1.5757  0.4241
   69ETH     H3  549   1.687   0.467   3.204 -0.8208  0.4895  1.1033
   69ETH     H4  550   1.850   0.338   3.089  0.3346 -0.8255  0.1786
   69ETH     H5  551   1.715   0.232   3.131 -1.4230 -0.3414  0.9879
   69ETH     H6  552   1.860   0.225   3.226 -2.1865 -1.2813  0.5362
   70ETH     C1  553   3.635   0.077   4.662  0.1898  0.2149  0.1413
   70ETH     C2  554   3.529  -0.019   4.609 -0.3714  0.1233  0.5938
   70ETH     H1  555   3.717   0.029   4.715 -0.7795 -3.1912 -1.1857
   70ETH     H2  556   3.585   0.157   4.718 -1.2556 -0.5425 -0.0274
   70ETH     H3  557   3.674   0.127   4.573 -0.0266  0.2239  0.0502
   70ETH     H4  558   3.468   0.030   4.533 -1.7172  0.3911  1.8052
   70ETH     H5  559   3.469  -0.060   4.690 -0.2129 -1.7304 -0.1652
   70ETH     H6  560   3.573  -0.099   4.549  4.0555 -0.0061  3.5657
   71ETH     C1  561   4.051   1.679   4.526 -0.0207  0.1135 -0.3900
   71ETH     C2  562   3.923   1.606   4.483 -0.1540  0.0450 -0.4396
   71ETH     H1  563   4.055   1.772   4.469 -2.4422 -0.0282 -0.9066
   71ETH     H2  564   4.147   1.626   4.521  0.7473  1.5007 -0.9368
   71ETH     H3  565   4.046   1.716   4.628 -2.0468  3.1260 -1.4454
   71ETH     H4  566   3.893   1.518   4.540  2.7882 -1.0024 -0.3310
   71ETH     H5  567   3.930   1.566   4.381  1.0147  0.6128 -0.6026
   71ETH     H6  568   3.842   1.678   4.488  0.7939  1.3176 -2.2737
   72ETH     C1  569   4.297   3.275   2.816  0.4326  0.4423 -0.0626
   72ETH     C2  570   4.312   3.147   2.899 -0.6940 -0.0692  0.0057
   72ETH     H1  571   4.205   3.269   2.757  1.1152  0.2242 -1.1406
   72ETH     H2  572   4.376   3.301   2.746 -1.2998  2.0308 -1.5379
   72ETH     H3  573   4.278   3.363   2.878 -3.2152  0.0360 -0.3541
   72ETH     H4  574   4.246   3.145   2.986 -0.3394 -1.3063  0.2617
   72ETH     H5  575   4.412   3.145   2.942 -0.4790  0.3851 -0.4581
   72ETH     H6  576   4.293   3.049   2.855 -0.4075 -0.8679  1.5895
   73ETH     C1  577   3.500   1.277   3.529  0.1327  0.1840  0.3923
   73ETH     C2  578   3.378   1.239   3.445  0.2854  0.0797  0.3891
   73ETH     H1  579   3.523   1.384   3.528  2.6880 -0.3147  0.7522
   73ETH     H2  580   3.592   1.231   3.493  0.9682  1.1691  1.2248
   73ETH     H3  581   3.488   1.252   3.634 -2.0464  0.0382  0.1548
   73ETH     H4  582   3.366   1.131   3.456  1.7180 -0.0272  1.1508
   73ETH     H5  583   3.394   1.270   3.342  1.4235  2.1730  1.1526
   73ETH     H6  584   3.294   1.300   3.478  0.4156  0.7138 -0.4239
   74ETH     C1  585   4.350   3.766   2.724  0.2422  0.2576 -0.1201
   74ETH     C2  586   4.419   3.679   2.614 -0.8002 -0.2950  0.0077
   74ETH     H1  587   4.367   3.712   2.817  1.0876 -0.6261 -0.7590
   74ETH     H2  588   4.242   3.773   2.709  0.2263  1.1048  0.3455
   74ETH     H3  589   4.386   3.869   2.724 -1.7192  0.9771 -0.5711
   74ETH     H4  590   4.368   3.582   2.619 -2.1550  0.3010 -1.4552
   74ETH     H5  591   4.526   3.673   2.635 -0.9594  1.1067  1.4114
   74ETH     H6  592   4.410   3.725   2.516  2.2359 -2.6089 -1.5271
   75ETH     C1  593   0.424   3.824   3.135 -0.8899  0.4421 -0.1207
   75ETH     C2  594   0.493   3.952   3.171  0.3950  0.1725 -0.6946
   75ETH     H1  595   0.402   3.769   3.227 -1.4991  4.2964  2.2776
   75ETH     H2  596   0.494   3.766   3.075 -0.9166 -0.4555  0.6720
   75ETH     H3  597   0.332   3.843   3.079 -0.3269 -0.9151 -1.5742
   75ETH     H4  598   0.563   3.916   3.246 -0.6153 -1.2504 -0.3919
   75ETH     H5  599   0.430   4.022   3.227  2.4243  0.8102  0.9299
   75ETH     H6  600   0.539   4.004   3.087  0.5156  0.5578 -0.3941
   76ETH     C1  601   3.854   1.656   4.866 -0.2908 -0.2421  0.2519
   76ETH     C2  602   3.804   1.548   4.953 -0.1750  0.7112 -0.3055
   76ETH     H1  603   3.830   1.626   4.764 -0.4966 -2.9447  1.0204
   76ETH     H2  604   3.962   1.659   4.877 -0.1320  0.3551 -1.2579
   76ETH     H3  605   3.814   1.755   4.888 -2.6152 -1.0805  0.1723
   76ETH     H4  606   3.787   1.577   5.056  3.0975  2.6205 -0.1700
   76ETH     H5  607   3.877   1.467   4.949 -1.1618 -0.2134  0.1293
   76ETH     H6  608   3.712   1.499   4.920  0.3948 -1.9078  1.7354
   77ETH     C1  609   0.865   2.548   0.614  0.5411 -0.0787  0.4158
   77ETH     C2  610   0.733   2.624   0.573  0.1896 -0.1016 -0.1608
   77ETH     H1  611   0.929   2.596   0.688  4.8460 -2.7247 -1.2351
   77ETH     H2  612   0.929   2.528   0.528  2.4005 -0.3725  1.7899
   77ETH     H3  613   0.836   2.450   0.650 -0.1560 -0.2243 -0.5010
   77ETH     H4  614   0.675   2.642   0.663 -0.6293 -2.0644 -0.2566
   77ETH     H5  615   0.668   2.564   0.509 -1.7856  0.9431  0.7966
   77ETH     H6  616   0.751   2.721   0.527 -1.7903 -0.2820 -1.4345
   78ETH     C1  617   2.762   0.084   2.479  0.6486  0.1069  0.6019
   78ETH     C2  618   2.847   0.128   2.592 -0.1642  0.4208 -0.4638
   78ETH     H1  619   2.816   0.091   2.384 -0.7851 -1.4066 -0.3731
   78ETH     H2  620   2.682   0.155   2.461 -0.7118 -1.6705 -0.7309
   78ETH     H3  621   2.715  -0.012   2.500  0.4762 -0.0485 -0.4644
   78ETH     H4  622   2.802   0.160   2.686  0.4679  0.9088 -0.3254
   78ETH     H5  623   2.901   0.222   2.580 -0.1822  0.6279  0.9347
   78ETH     H6  624   2.919   0.051   2.616 -1.5856 -0.5571  0.8335
   79ETH     C1  625   2.584   0.597   1.657  0.5301 -0.8027  0.0349
   79ETH     C2  626   2.740   0.621   1.643 -0.1391 -0.0559  0.0489
   79ETH     H1  627   2.541   0.609   1.757  0.8335 -1.3027  0.2259
   79ETH     H2  628   2.563   0.495   1.627  1.1256 -1.6516  2.3119
   79ETH     H3  629   2.533   0.664   1.587  2.3073  0.7483  0.1408
   79ETH     H4  630   2.802   0.562   1.711  2.9411  3.6180  0.8229
   79ETH     H5  631   2.766   0.725   1.662  0.4906 -0.5518  2.1857
   79ETH     H6  632   2.786   0.599   1.547  3.0172  0.2106  1.3793
   80ETH     C1  633   4.753   0.508   1.489 -0.1448  0.1235  0.1857
   80ETH     C2  634   4.805   0.497   1.628  0.4746  0.1233 -0.0553
   80ETH     H1  635   4.650   0.476   1.481 -0.4830  0.8398  1.3983
   80ETH     H2  636   4.806   0.432   1.433  0.3960 -1.0606  2.1917
   80ETH     H3  637   4.774   0.600   1.434 -0.1408  0.5131  0.8192
   80ETH     H4  638   4.787   0.594   1.675 -0.1540 -0.9698  2.0767
   80ETH     H5  639   4.913   0.480   1.626  0.5155  0.2530  0.8928
   80ETH     H6  640   4.760   0.418   1.687 -0.0404 -1.5774 -2.5389
   81ETH     C1  641   3.668   0.907   3.823 -0.3144  0.3986 -0.2341
   81ETH     C2  642   3.526   0.875   3.756 -1.0963  0.5247 -0.3741
   81ETH     H1  643   3.644   0.932   3.927  0.3444 -0.1644  0.0620
   81ETH     H2  644   3.721   0.990   3.777  0.0869  0.8240  0.9526
   81ETH     H3  645   3.733   0.821   3.840  2.8751  2.5663 -0.6027
   81ETH     H4  646   3.537   0.903   3.651 -0.0147  0.2216 -0.3546
   81ETH     H5  647   3.460   0.954   3.793  0.6274  1.1432  1.5430
   81ETH     H6  648   3.491   0.775   3.780 -1.5805  1.3310  2.6966
   82ETH     C1  649   2.762   0.222   1.766  0.3707 -0.0618 -0.6350
   82ETH     C2  650   2.818   0.081   1.744  0.3859  0.5641 -0.1115
   82ETH     H1  651   2.654   0.212   1.756  0.6391 -2.2233 -2.1313
   82ETH     H2  652   2.788   0.289   1.684  0.1852  0.6955 -0.0773
   82ETH     H3  653   2.802   0.238   1.866  0.2392 -0.0405 -0.5860
   82ETH     H4  654   2.794   0.045   1.645 -0.1710  1.1187 -0.1883
   82ETH     H5  655   2.787   0.016   1.826  0.4100  0.7557  0.0539
   82ETH     H6  656   2.925   0.097   1.756  0.3385  1.7458 -1.1192
   83ETH     C1  657   2.632   1.817   4.531 -0.1690  0.8486 -0.0116
   83ETH     C2  658   2.551   1.927   4.467  0.6376 -0.6651  0.1397
   83ETH     H1  659   2.694   1.857   4.611  1.4162 -1.4763  0.0089
   83ETH     H2  660   2.690   1.758   4.459 -1.8008  0.8407 -1.3885
   83ETH     H3  661   2.574   1.733   4.569 -1.3586  0.5502 -2.2725
   83ETH     H4  662   2.487   1.883   4.390  0.6381 -0.8872  0.2644
   83ETH     H5  663   2.619   2.002   4.429  1.4005 -0.8951  1.0054
   83ETH     H6  664   2.493   1.983   4.541  1.9366  1.0882 -0.1317
   84ETH     C1  665   2.382   1.511   3.521  0.2057  0.4192  0.1829
   84ETH     C2  666   2.400   1.521   3.676 -0.0758  0.9061  0.4642
   84ETH     H1  667   2.456   1.434   3.499  0.5716  0.7790  0.1311
   84ETH     H2  668   2.417   1.603   3.473  1.8320  0.5308  1.4927
   84ETH     H3  669   2.278   1.489   3.496  0.0505  0.6713  0.5980
   84ETH     H4  670   2.340   1.448   3.730  0.0656  2.4442  2.8477
   84ETH     H5  671   2.359   1.610   3.722 -2.4761  0.2177 -0.1820
   84ETH     H6  672   2.508   1.516   3.691 -0.0231 -1.4981 -0.2524
   85ETH     C1  673   0.458   3.456   3.229  0.4557  0.0207  0.4623
   85ETH     C2  674   0.385   3.380   3.120  0.1167 -0.4987 -0.0773
   85ETH     H1  675   0.385   3.502   3.295 -1.7278 -0.8492 -1.1993
   85ETH     H2  676   0.511   3.542   3.187 -0.4740  1.4805  2.1635
   85ETH     H3  677   0.529   3.394   3.283 -0.6890 -0.0437  1.9482
   85ETH     H4  678   0.332   3.451   3.056 -1.7592  2.5832  4.4269
   85ETH     H5  679   0.315   3.309   3.163  2.3789 -2.5955  0.4341
   85ETH     H6  680   0.456   3.326   3.056  1.0485 -4.8803  4.1027
   86ETH     C1  681   3.735   1.958   4.677  0.4649 -0.1997 -0.8561
   86ETH     C2  682   3.604   1.885   4.639  0.4025  0.5590 -0.3540
   86ETH     H1  683   3.733   1.998   4.779 -1.7549  1.8001 -1.5866
   86ETH     H2  684   3.740   2.051   4.620 -2.1380 -1.3113 -3.1237
   86ETH     H3  685   3.827   1.903   4.659  0.8266  0.1467 -0.1017
   86ETH     H4  686   3.530   1.962   4.660  0.5631  0.6142 -0.0037
   86ETH     H5  687   3.588   1.801   4.707  0.5844 -0.6883 -1.7901
   86ETH     H6  688   3.601   1.853   4.534  3.1461  0.6182 -0.5103
   87ETH     C1  689   3.722   2.593   1.103 -0.2674 -0.5495 -0.1171
   87ETH     C2  690   3.657   2.551   1.231 -0.5930 -0.0631 -0.6352
   87ETH     H1  691   3.822   2.552   1.089 -0.3278 -0.6774 -0.1725
   87ETH     H2  692   3.724   2.701   1.084 -0.9915 -0.5604 -0.3007
   87ETH     H3  693   3.660   2.565   1.017  1.6083  0.5297 -1.9208
   87ETH     H4  694   3.659   2.443   1.248 -1.6006  0.2939  2.3530
   87ETH     H5  695   3.553   2.580   1.245 -0.2202  0.4613  1.2964
   87ETH     H6  696   3.717   2.587   1.315  0.7818 -1.5074 -0.9296
   88ETH     C1  697   4.082   1.980   2.226 -0.0196 -0.9222  0.1426
   88ETH     C2  698   4.151   1.875   2.139  0.5102  0.1942 -0.3595
   88ETH     H1  699   4.096   2.076   2.175 -0.0359 -1.3087 -0.6048
   88ETH     H2  700   4.111   1.985   2.331 -1.5957  0.5034  0.5473
   88ETH     H3  701   3.976   1.968   2.248  0.1361 -3.0179 -0.0045
   88ETH     H4  702   4.082   1.803   2.093  1.1363 -0.3633 -0.4418
   88ETH     H5  703   4.209   1.802   2.194  0.5524 -0.7217 -1.5702
   88ETH     H6  704   4.222   1.917   2.068  1.9389 -0.5888  0.5696
   89ETH     C1  705   4.250   3.150   2.421  0.1438 -0.2272  0.3304
   89ETH     C2  706   4.208   3.012   2.464 -0.0696  0.4258  0.9868
   89ETH     H1  707   4.356   3.155   2.398  0.7819 -0.6281  2.8677
   89ETH     H2  708   4.230   3.226   2.497  0.1042 -1.6367  1.7976
   89ETH     H3  709   4.197   3.181   2.331 -0.4021 -1.6153  0.1465
   89ETH     H4  710   4.100   2.998   2.466  0.2050 -2.5737 -0.0429
   89ETH     H5  711   4.247   2.994   2.565  0.2794  0.9111  0.9386
   89ETH     H6  712   4.233   2.923   2.407  0.1162 -0.1831  1.9808
   90ETH     C1  713   4.552   3.810   2.146 -0.2653 -0.1814  0.4467
   90ETH     C2  714   4.683   3.747   2.193 -0.1972  0.2332  0.0432
   90ETH     H1  715   4.484   3.741   2.096 -1.2663  2.2071 -1.6919
   90ETH     H2  716   4.570   3.895   2.081  2.5219 -0.4317  0.7409
   90ETH     H3  717   4.505   3.858   2.231  0.4893  1.7036 -0.1577
   90ETH     H4  718   4.749   3.829   2.222  0.4530  0.3303 -1.6149
   90ETH     H5  719   4.721   3.689   2.109 -2.5325 -1.1607 -0.1201
   90ETH     H6  720   4.664   3.678   2.275 -0.6916 -2.4022 -2.1612
   91ETH     C1  721   0.631   3.231   1.044 -0.4472 -0.0310  0.0184
   91ETH     C2  722   0.594   3.286   0.908 -0.0148 -0.4370 -0.7720
   91ETH     H1  723   0.690   3.140   1.034  0.1100  0.3415 -0.1518
   91ETH     H2  724   0.538   3.220   1.100 -0.9778 -0.2779 -0.9042
   91ETH     H3  725   0.703   3.291   1.100  1.1823 -1.0863 -0.8519
   91ETH     H4  726   0.566   3.390   0.895  1.0467 -0.1136 -0.6334
   91ETH     H5  727   0.512   3.226   0.870  0.3272 -1.2869 -0.2132
   91ETH     H6  728   0.684   3.281   0.847  0.5181 -0.1431 -0.0353
   92ETH     C1  729   4.699   3.414   2.367 -0.4813 -0.0177  0.4630
   92ETH     C2  730   4.643   3.277   2.398 -0.8336  0.1689  0.0334
   92ETH     H1  731   4.621   3.489   2.381  0.1697  0.5946  0.8874
   92ETH     H2  732   4.746   3.425   2.269  1.0850  0.0476  1.1888
   92ETH     H3  733   4.770   3.455   2.439  2.4353  0.7904 -2.5740
   92ETH     H4  734   4.601   3.282   2.499  0.4597 -0.2113  0.6088
   92ETH     H5  735   4.717   3.198   2.406 -0.4371  0.4955 -0.3692
   92ETH     H6  736   4.575   3.239   2.321  0.9592 -0.3832 -1.3605
   93ETH     C1  737   2.508   2.830   3.704  0.1645 -0.3183 -0.1469
   93ETH     C2  738   2.496   2.753   3.573  0.1575  0.3839 -0.0440
   93ETH     H1  739   2.552   2.930   3.692  1.0122 -0.9301 -3.0074
   93ETH     H2  740   2.581   2.774   3.761  3.2778 -0.1015 -3.5352
   93ETH     H3  741   2.417   2.838   3.764  0.8305  1.5830  0.7148
   93ETH     H4  742   2.435   2.823   3.516 -1.5815 -2.8655 -2.5348
   93ETH     H5  743   2.438   2.661   3.581  1.6495 -0.7160 -1.3300
   93ETH     H6  744   2.594   2.716   3.544  1.1026 -0.2586  3.5738
   94ETH     C1  745   4.733   4.488   0.355  0.4149  0.0686 -0.9455
   94ETH     C2  746   4.650   4.367   0.391  0.0438  0.3687 -0.1348
   94ETH     H1  747   4.777   4.537   0.442 -1.3912  1.4764 -0.7675
   94ETH     H2  748   4.658   4.549   0.305 -0.0767 -1.0694 -1.6491
   94ETH     H3  749   4.814   4.464   0.286  1.1502 -0.7618  0.1669
   94ETH     H4  750   4.568   4.412   0.447  0.4210  0.5573  0.2683
   94ETH     H5  751   4.712   4.298   0.449  0.0096  1.3987  1.1689
   94ETH     H6  752   4.618   4.318   0.299  0.2474 -0.5244  0.2609
   95ETH     C1  753   3.065   1.016   1.781  0.7086  0.9184 -0.0888
   95ETH     C2  754   3.023   1.118   1.888 -0.1313 -0.2274 -0.2757
   95ETH     H1  755   2.991   1.006   1.701  0.6065 -1.8164  0.2416
   95ETH     H2  756   3.082   0.922   1.834 -0.0255 -0.1374 -1.6308
   95ETH     H3  757   3.160   1.041   1.735  0.2949 -0.0273 -1.5409
   95ETH     H4  758   2.971   1.205   1.849  1.9417  1.5203  0.6602
   95ETH     H5  759   3.098   1.153   1.958  0.3984  0.9921 -1.4003
   95ETH     H6  760   2.958   1.062   1.955  0.7211  0.2845  1.0126
   96ETH     C1  761   0.996   4.731   4.476 -0.3562 -0.1173  0.4039
   96ETH     C2  762   0.914   4.753   4.602  1.2167  0.1668  0.0088
   96ETH     H1  763   1.000   4.826   4.423  0.6833 -0.2852  0.1537
   96ETH     H2  764   0.954   4.655   4.409  2.0257  0.1508 -1.5793
   96ETH     H3  765   1.094   4.687   4.498 -1.3196 -1.8571  1.4160
   96ETH     H4  766   0.808   4.761   4.575  1.8641  1.7628 -2.3442
   96ETH     H5  767   0.934   4.851   4.646  1.7565  0.3321 -0.5983
   96ETH     H6  768   0.918   4.668   4.670  0.8366 -0.3605 -0.6144
   97ETH     C1  769   2.681   2.482   1.908 -0.6183  0.2791 -0.7426
   97ETH     C2  770   2.786   2.372   1.920  0.6826 -0.8150 -0.1778
   97ETH     H1  771   2.716   2.579   1.943  0.8874 -0.6920  0.5625
   97ETH     H2  772   2.602   2.454   1.978  0.8413  0.8306  1.1961
   97ETH     H3  773   2.647   2.497   1.805 -1.5620  1.1031 -0.3275
   97ETH     H4  774   2.761   2.266   1.919  0.7044 -0.8272  0.4572
   97ETH     H5  775   2.820   2.374   2.023 -0.8636 -1.4329  0.3627
   97ETH     H6  776   2.869   2.393   1.852  0.0806  0.3459 -0.5946
   98ETH     C1  777   1.991   1.771   1.273 -0.5829  0.5417  0.7464
   98ETH     C2  778   1.995   1.734   1.425  0.1218 -0.0555  0.0127
   98ETH     H1  779   1.887   1.794   1.250 -0.4249  0.4141 -0.1488
   98ETH     H2  780   2.014   1.685   1.209 -2.0720  0.8099 -0.1983
   98ETH     H3  781   2.061   1.847   1.238  0.2025 -0.3005  0.4472
   98ETH     H4  782   2.046   1.640   1.446 -2.0136 -0.9130  1.7741
   98ETH     H5  783   1.891   1.718   1.455  0.1014 -0.0815 -0.0698
   98ETH     H6  784   2.046   1.815   1.477 -0.0828 -0.5520  1.0091
   99ETH     C1  785   2.888   0.110   0.160 -0.3781 -0.2310 -0.0912
   99ETH     C2  786   2.994  -0.004   0.176 -0.3711 -0.7539 -0.2615
   99ETH     H1  787   2.925   0.196   0.216  1.2932  0.3713 -2.0125
   99ETH     H2  788   2.783   0.100   0.187 -1.0942  1.7243 -1.9051
   99ETH     H3  789   2.897   0.144   0.057  0.0479  2.7785  0.8498
   99ETH     H4  790   2.978  -0.068   0.263 -0.0252  1.3287  1.3878
   99ETH     H5  791   3.098   0.028   0.166 -0.0230 -1.5249  0.7436
   99ETH     H6  792   2.968  -0.079   0.100 -0.0400  1.2044 -2.4101
  100ETH     C1  793   3.955   3.694   1.048 -0.0419  0.0103  0.5113
  100ETH     C2  794   4.109   3.660   1.043 -0.4669  0.1788  0.6798
  100ETH     H1  795   3.921   3.691   1.152 -1.3144  2.2280  0.2226
  100ETH     H2  796   3.893   3.626   0.991  2.3053 -1.0043 -0.9857
  100ETH     H3  797   3.929   3.794   1.014 -0.1759 -0.4762 -0.8644
  100ETH     H4  798   4.131   3.566   1.094 -1.5112 -1.1703 -1.2237
  100ETH     H5  799   4.152   3.740   1.104 -0.9379  0.1017  1.1240
  100ETH     H6  800   4.149   3.668   0.942 -1.0315 -0.3651  0.4031
  101ETH     C1  801   4.126   1.309   4.776 -0.6084  0.0001  0.5254
  101ETH     C2  802   4.179   1.448   4.817  0.3014  0.2939 -0.2944
  101ETH     H1  803   4.189   1.229   4.815  1.8425  0.8243 -1.4823
  101ETH     H2  804   4.126   1.285   4.670 -1.6398 -2.3987  1.0052
  101ETH     H3  805   4.023   1.288   4.805 -1.4700 -0.0508 -2.3128
  101ETH     H4  806   4.288   1.446   4.815  0.3314  1.5157 -0.5397
  101ETH     H5  807   4.150   1.472   4.919  2.2893  3.2359 -0.3023
  101ETH     H6  808   4.140   1.522   4.747  0.6726  2.2049  1.4076
  102ETH     C1  809   0.150   0.186   4.179  0.4964  0.1304  0.2734
  102ETH     C2  810   0.103   0.337   4.186  0.4359 -0.1174 -0.2915
  102ETH     H1  811   0.237   0.188   4.244 -0.4710  0.8569  1.6116
  102ETH     H2  812   0.176   0.159   4.076  0.6604 -3.1277  1.0695
  102ETH     H3  813   0.076   0.120   4.223  0.3108 -1.6929 -2.5352
  102ETH     H4  814   0.184   0.408   4.170 -0.5114  1.2009  0.6261
  102ETH     H5  815   0.063   0.351   4.286 -0.3477 -1.2706 -0.4235
  102ETH     H6  816   0.022   0.349   4.115 -1.1146  0.3599  1.5052
  103ETH     C1  817   4.261   2.971   0.035 -0.0626  0.1374  0.6543
  103ETH     C2  818   4.347   2.906  -0.074  0.0650  0.0811  0.7187
  103ETH     H1  819   4.323   3.042   0.091 -1.2339  3.3911 -1.8602
  103ETH     H2  820   4.222   2.901   0.109  0.3572 -0.3701  0.3945
  103ETH     H3  821   4.185   3.030  -0.015 -0.7419 -2.4605 -1.5647
  103ETH     H4  822   4.293   2.831  -0.132 -0.4282  1.5087 -0.7500
  103ETH     H5  823   4.438   2.860  -0.035 -0.1989 -1.0443  0.0649
  103ETH     H6  824   4.375   2.976  -0.153 -0.5692 -0.8893 -0.4110
  104ETH     C1  825   1.708   0.691   3.489  0.0142  0.1272  0.1186
  104ETH     C2  826   1.758   0.837   3.497  0.1037  0.0637  0.1224
  104ETH     H1  827   1.780   0.612   3.469 -1.2955 -0.9529 -0.5404
  104ETH     H2  828   1.634   0.689   3.409  1.6201 -2.4676 -1.4380
  104ETH     H3  829   1.658   0.667   3.584  1.6535 -2.3526  0.4497
  104ETH     H4  830   1.804   0.869   3.403  0.5439  1.8617  0.8981
  104ETH     H5  831   1.827   0.856   3.579  0.9715 -1.2244 -0.2787
  104ETH     H6  832   1.662   0.888   3.506 -0.1448 -0.5037  0.7282
  105ETH     C1  833   0.622   1.576   4.680 -0.2060  0.5242  0.9482
  105ETH     C2  834   0.559   1.653   4.575 -0.0173 -0.3216 -0.3738
  105ETH     H1  835   0.718   1.540   4.642  0.2572  2.5395  0.0609
  105ETH     H2  836   0.565   1.493   4.722 -1.6546  1.3358  0.6349
  105ETH     H3  837   0.643   1.639   4.767  0.2415  0.5534  0.8197
  105ETH     H4  838   0.628   1.735   4.558  0.2899 -0.5802 -0.3759
  105ETH     H5  839   0.470   1.704   4.611  0.0465 -1.1847  1.0735
  105ETH     H6  840   0.550   1.605   4.477 -1.7728 -1.2156  0.1831
  106ETH     C1  841   0.153   3.327   2.806 -0.5153  0.3650  0.3358
  106ETH     C2  842   0.118   3.348   2.653  0.3557  0.4862 -0.3377
  106ETH     H1  843   0.200   3.409   2.861 -1.7061  0.3646  1.4039
  106ETH     H2  844   0.224   3.244   2.812 -0.7812 -0.0690 -1.6574
  106ETH     H3  845   0.060   3.303   2.858  0.0167 -0.2262  1.0406
  106ETH     H4  846   0.100   3.250   2.608 -1.5444  0.8811 -0.5148
  106ETH     H5  847   0.191   3.410   2.602  0.0637  1.3849  0.3125
  106ETH     H6  848   0.032   3.411   2.636  1.0053  1.7370  0.8203
  107ETH     C1  849   4.046   2.609   4.855 -0.2291  0.3355  0.3583
  107ETH     C2  850   3.895   2.632   4.873 -0.5772  1.0135  0.1563
  107ETH     H1  851   4.067   2.546   4.769 -0.9601 -0.0888  0.4808
  107ETH     H2  852   4.091   2.564   4.944 -2.6222 -0.6290  1.1736
  107ETH     H3  853   4.089   2.706   4.830  0.2082 -0.2251 -1.1260
  107ETH     H4  854   3.838   2.539   4.869 -1.5419  1.5594  0.5938
  107ETH     H5  855   3.870   2.689   4.783 -3.1606 -1.7804 -1.0842
  107ETH     H6  856   3.867   2.677   4.969 -1.7648 -0.9090  0.7754
  108ETH     C1  857   1.707   2.703   3.270 -0.7234 -0.1267  0.6179
  108ETH     C2  858   1.563   2.686   3.232 -0.3694  0.1471  0.2218
  108ETH     H1  859   1.750   2.791   3.221  0.3772 -0.6620  0.5898
  108ETH     H2  860   1.764   2.615   3.241 -0.1393  0.6101 -0.5923
  108ETH     H3  861   1.732   2.707   3.376  0.4509  0.2115  0.3414
  108ETH     H4  862   1.532   2.585   3.255 -0.5825 -0.3328 -1.9459
  108ETH     H5  863   1.538   2.697   3.126 -1.3442  2.2786  0.6218
  108ETH     H6  864   1.491   2.752   3.282 -1.9007  1.7257 -3.6566
  109ETH     C1  865   2.226   0.627   1.587 -0.5575  0.5123  0.0950
  109ETH     C2  866   2.255   0.680   1.727  0.1326 -0.3022  0.0823
  109ETH     H1  867   2.206   0.714   1.525  2.1445  1.8686  0.9839
  109ETH     H2  868   2.138   0.562   1.592 -0.1327 -0.1634 -0.9902
  109ETH     H3  869   2.308   0.566   1.550  0.1515 -0.4848  3.0601
  109ETH     H4  870   2.344   0.741   1.710  0.3412 -0.2065  1.3870
  109ETH     H5  871   2.271   0.600   1.800  0.6071  1.2393  1.7411
  109ETH     H6  872   2.174   0.742   1.765 -1.1253 -2.5070  1.1705
  110ETH     C1  873   4.715   3.608   0.560 -0.6190 -0.5265 -0.2657
  110ETH     C2  874   4.585   3.519   0.565  0.1563 -0.6814 -0.3521
  110ETH     H1  875   4.723   3.638   0.665 -1.5843  0.1997 -0.3888
  110ETH     H2  876   4.698   3.695   0.497 -1.6765 -0.7990 -0.3811
  110ETH     H3  877   4.811   3.566   0.530 -1.1861 -1.4660 -0.8426
  110ETH     H4  878   4.573   3.454   0.652 -1.6130 -0.0016 -0.0426
  110ETH     H5  879   4.574   3.465   0.472  0.6722 -0.0702 -0.7804
  110ETH     H6  880   4.498   3.585   0.569 -0.0605 -0.9914  0.1798
  111ETH     C1  881   0.094   3.085   0.150 -0.8736  0.3698 -0.1946
  111ETH     C2  882   0.164   3.043   0.019 -0.3337 -0.3835  0.1618
  111ETH     H1  883   0.003   3.026   0.163 -2.8061  2.9678 -1.0299
  111ETH     H2  884   0.077   3.192   0.156  0.5542  0.5432  2.0973
  111ETH     H3  885   0.152   3.057   0.238 -1.6451 -0.6387  0.0256
  111ETH     H4  886   0.180   3.141  -0.026  0.1327  1.2579  3.5827
  111ETH     H5  887   0.098   2.979  -0.040  0.1523 -1.4634  0.7593
  111ETH     H6  888   0.255   2.984   0.035  0.4199  0.6092 -0.3656
  112ETH     C1  889   4.266   2.393   3.480 -0.6961 -0.0565 -0.0143
  112ETH     C2  890   4.251   2.353   3.625  0.2178  0.2622 -0.2793
  112ETH     H1  891   4.320   2.487   3.468 -2.5853  1.2742  1.3184
  112ETH     H2  892   4.183   2.417   3.413  1.1575 -1.7883 -3.1732
  112ETH     H3  893   4.326   2.324   3.421 -1.3067  0.0136 -0.7319
  112ETH     H4  894   4.195   2.435   3.669 -2.1301 -0.6194 -1.4324
  112ETH     H5  895   4.342   2.323   3.676 -0.3238  0.7920  1.0571
  112ETH     H6  896   4.182   2.271   3.647  0.3367  0.6755  1.8557
  113ETH     C1  897   0.688   3.171   4.013 -0.2684  0.3394 -0.1848
  113ETH     C2  898   0.732   3.205   4.151  0.1081  0.7603 -0.1579
  113ETH     H1  899   0.632   3.255   3.971 -1.7272 -0.8934 -0.8398
  113ETH     H2  900   0.633   3.077   4.005 -1.2255  0.8733 -0.0956
  113ETH     H3  901   0.765   3.149   3.939 -2.1313 -4.6013 -1.0439
  113ETH     H4  902   0.767   3.307   4.166 -0.2357  0.7915  0.4646
  113ETH     H5  903   0.812   3.136   4.178 -1.0119 -0.2767  0.6075
  113ETH     H6  904   0.659   3.196   4.231 -0.1988 -0.7580 -0.5723
  114ETH     C1  905   0.489   2.224   1.123  0.5489 -0.8437 -0.9425
  114ETH     C2  906   0.467   2.261   1.265 -0.5507  0.0429  0.1932
  114ETH     H1  907   0.401   2.245   1.062  1.5901  1.4264 -1.7657
  114ETH     H2  908   0.531   2.123   1.122  3.7375  0.3516 -0.6447
  114ETH     H3  909   0.568   2.292   1.092  0.8430 -0.7917 -0.1197
  114ETH     H4  910   0.395   2.190   1.306 -0.1861  0.1940  1.1262
  114ETH     H5  911   0.418   2.359   1.265 -2.4953 -0.8218  2.2485
  114ETH     H6  912   0.551   2.260   1.334  0.8434  0.7376 -1.4362
  115ETH     C1  913   4.485   2.990   0.992  0.5117 -0.2825 -0.4245
  115ETH     C2  914   4.359   3.085   0.987 -0.4682  0.2072 -0.1158
  115ETH     H1  915   4.579   3.036   0.964  0.9690 -1.9251 -1.7140
  115ETH     H2  916   4.465   2.907   0.925 -1.3856 -0.4730  0.3044
  115ETH     H3  917   4.490   2.939   1.089 -2.5000 -2.1842 -1.1307
  115ETH     H4  918   4.353   3.130   0.888  2.2585 -1.1258 -0.9805
  115ETH     H5  919   4.366   3.177   1.044  1.9963  0.5087 -0.7995
  115ETH     H6  920   4.274   3.027   1.023  0.8233 -1.6973 -0.0037
  116ETH     C1  921   0.231   1.109   4.705  0.4915  0.4858 -0.7258
  116ETH     C2  922   0.253   0.957   4.713 -0.3598 -0.6556 -0.3067
  116ETH     H1  923   0.250   1.149   4.605  2.1687 -0.5467 -0.8722
  116ETH     H2  924   0.287   1.160   4.783 -1.3185  1.8974 -0.2880
  116ETH     H3  925   0.128   1.116   4.739  0.7655 -0.2283  0.2920
  116ETH     H4  926   0.231   0.900   4.622  0.2747  0.6511 -1.3083
  116ETH     H5  927   0.198   0.906   4.792  0.3895 -2.2096 -0.7524
  116ETH     H6  928   0.356   0.927   4.734 -0.1526  0.5170  0.4079
  117ETH     C1  929   0.097   3.599   3.173 -0.3690  0.0384 -0.5106
  117ETH     C2  930  -0.013   3.687   3.246  0.2956  0.0101 -0.5325
  117ETH     H1  931   0.150   3.527   3.235 -1.0476 -0.2747 -0.2956
  117ETH     H2  932   0.171   3.661   3.122 -1.6465 -0.7250 -3.5174
  117ETH     H3  933   0.064   3.543   3.085 -2.5211  0.2389  0.1236
  117ETH     H4  934  -0.050   3.766   3.180  0.3869 -0.6749 -1.4301
  117ETH     H5  935   0.028   3.746   3.328 -1.1489 -1.1526  1.0806
  117ETH     H6  936  -0.095   3.623   3.278  0.4940 -0.2588 -0.5608
  118ETH     C1  937   0.809   3.542   2.919  0.4107 -0.3087 -0.1212
  118ETH     C2  938   0.798   3.607   3.055  0.3242  0.3101 -0.9819
  118ETH     H1  939   0.842   3.616   2.846  1.5450  0.4142  1.0751
  118ETH     H2  940   0.712   3.503   2.888  0.7277 -1.1080 -0.1308
  118ETH     H3  941   0.889   3.468   2.924  0.0985 -0.7243 -0.9092
  118ETH     H4  942   0.763   3.537   3.131 -1.0135  1.3094 -0.6437
  118ETH     H5  943   0.724   3.687   3.051 -0.2204 -0.1920 -1.0307
  118ETH     H6  944   0.895   3.646   3.086  1.1310 -2.7499  0.7365
  119ETH     C1  945   0.398   3.752   2.774  1.2672 -0.2924 -0.3543
  119ETH     C2  946   0.500   3.660   2.693 -0.3768  0.7853 -0.6649
  119ETH     H1  947   0.325   3.703   2.838 -0.7241  0.6078 -1.7996
  119ETH     H2  948   0.339   3.799   2.694  0.6215 -1.9716 -0.9008
  119ETH     H3  949   0.442   3.831   2.834 -0.1825  1.1069 -1.0528
  119ETH     H4  950   0.555   3.709   2.613  0.6188 -0.0113 -0.4820
  119ETH     H5  951   0.464   3.567   2.648 -1.5520  0.6728  0.4469
  119ETH     H6  952   0.579   3.614   2.752 -0.6311  0.8812 -0.2426
  120ETH     C1  953   1.659   2.737   1.128 -0.6455  0.3901 -0.5057
  120ETH     C2  954   1.707   2.841   1.240  0.7862  0.6968  0.4756
  120ETH     H1  955   1.636   2.637   1.164 -0.0071 -0.0042 -1.1629
  120ETH     H2  956   1.727   2.736   1.043  0.2449 -0.1952  0.2057
  120ETH     H3  957   1.571   2.781   1.079 -0.5690 -0.1363 -1.1332
  120ETH     H4  958   1.798   2.810   1.290  1.5820  0.6602 -0.9390
  120ETH     H5  959   1.617   2.857   1.299 -1.4776 -0.7001 -2.3265
  120ETH     H6  960   1.742   2.929   1.186  0.7337  1.6764  1.9762
  121ETH     C1  961   3.895   3.734   3.209  0.6358  0.8743 -0.3141
  121ETH     C2  962   3.834   3.627   3.293  0.5185 -0.8210 -0.1417
  121ETH     H1  963   3.839   3.828   3.216  0.9511  1.1760 -1.5698
  121ETH     H2  964   3.905   3.703   3.105 -2.6634  0.9594 -0.7530
  121ETH     H3  965   3.993   3.762   3.249  0.6597  1.3407 -0.6878
  121ETH     H4  966   3.755   3.572   3.243  0.8847 -0.2539 -1.3641
  121ETH     H5  967   3.803   3.669   3.389 -0.5901  0.4523 -1.0215
  121ETH     H6  968   3.911   3.553   3.315  1.7621  0.7921  1.2650
  122ETH     C1  969   3.925   3.425   2.838 -0.1782  0.5481  0.2853
  122ETH     C2  970   4.010   3.556   2.832 -0.0169  0.7364 -0.0286
  122ETH     H1  971   3.965   3.360   2.916 -0.3641 -1.1458 -0.9753
  122ETH     H2  972   3.928   3.383   2.738  3.4928 -0.2480  0.5807
  122ETH     H3  973   3.822   3.442   2.870  0.0986  0.4463  1.2609
  122ETH     H4  974   3.985   3.619   2.747 -0.9173  1.5725  0.8147
  122ETH     H5  975   4.112   3.524   2.815 -0.5990 -0.0406 -2.3397
  122ETH     H6  976   4.009   3.604   2.931  0.3157 -1.5032  1.1222
  123ETH     C1  977   3.371   2.719   1.441  0.3110  0.2571  0.2377
  123ETH     C2  978   3.476   2.828   1.455 -0.1087  0.2178  0.5679
  123ETH     H1  979   3.410   2.628   1.396 -1.9999 -0.5565 -0.2429
  123ETH     H2  980   3.290   2.749   1.376  0.3817  1.4480  0.6742
  123ETH     H3  981   3.327   2.699   1.539 -0.4466 -1.4953 -0.4230
  123ETH     H4  982   3.539   2.811   1.543 -1.8638  1.0134  2.0607
  123ETH     H5  983   3.430   2.926   1.473 -2.1360 -0.5528 -0.1616
  123ETH     H6  984   3.543   2.833   1.369  0.1883  1.7069  0.8443
  124ETH     C1  985   3.783   4.532   4.772  0.0419  0.5289 -0.0487
  124ETH     C2  986   3.644   4.554   4.817 -0.4432  0.3585  0.6147
  124ETH     H1  987   3.821   4.634   4.779 -1.4147  1.2552 -1.6746
  124ETH     H2  988   3.798   4.493   4.671 -2.5861 -0.7095 -0.0400
  124ETH     H3  989   3.835   4.460   4.835 -0.8548 -0.6369 -0.5911
  124ETH     H4  990   3.644   4.594   4.918  2.2995 -1.1232  1.3110
  124ETH     H5  991   3.597   4.455   4.821  2.0444 -0.9379 -0.0236
  124ETH     H6  992   3.597   4.620   4.745 -1.6308 -0.6037  0.4608
  125ETH     C1  993   0.857   1.902   3.219  0.0249 -0.3051  0.0053
  125ETH     C2  994   0.963   2.012   3.185  1.1410  0.5032 -0.4827
  125ETH     H1  995   0.799   1.915   3.310 -0.8379 -1.7296 -0.3088
  125ETH     H2  996   0.906   1.806   3.236 -1.9079 -1.2938  0.2956
  125ETH     H3  997   0.781   1.893   3.141 -0.0252  2.3239 -0.3534
  125ETH     H4  998   1.040   2.038   3.258  0.1041 -0.6967  1.1042
  125ETH     H5  999   0.910   2.103   3.154  1.0333 -0.0897 -2.1005
  125ETH     H6 1000   1.017   1.966   3.102  1.0328  0.6782 -0.6507
  126SOL     OW 1001   0.688   1.012   3.101 -1.0673  0.2683 -0.2467
  126SOL    HW1 1002   0.608   1.067   3.081 -2.4775 -2.1081 -1.5358
  126SOL    HW2 1003   0.693   0.994   3.200 -0.5973  2.5444  0.1927
  127SOL     OW 1004   3.985   3.461   0.159 -0.3957 -0.0327 -0.0821
  127SOL    HW1 1005   4.036   3.388   0.112  0.2085  1.0110 -1.0853
  127SOL    HW2 1006   3.889   3.458   0.131 -0.1596  0.2034 -0.9353
  128SOL     OW 1007   0.398   1.244   2.122 -0.5052  0.4351 -0.3164
  128SOL    HW1 1008   0.445   1.241   2.211 -0.7802  2.2061 -0.0757
  128SOL    HW2 1009   0.355   1.155   2.105 -1.0264  0.2532  1.6410
  129SOL     OW 1010   0.942   2.199   2.409 -0.2598 -0.4618  0.4241
  129SOL    HW1 1011   0.972   2.223   2.316 -0.3490  0.2128  0.5629
  129SOL    HW2 1012   0.994   2.252   2.475  0.0223 -1.1737  0.7800
  130SOL     OW 1013   3.384   4.729   3.777  0.4090  0.2020  0.3836
  130SOL    HW1 1014   3.329   4.736   3.860  0.1450 -2.5790  0.5590
  130SOL    HW2 1015   3.473   4.688   3.799  0.4004 -0.4249 -0.6392
  131SOL     OW 1016   2.269   4.407   4.295 -0.1116 -0.5432  0.1125
  131SOL    HW1 1017   2.314   4.334   4.347 -2.0916 -2.0750 -0.2078
  131SOL    HW2 1018   2.249   4.484   4.355  0.8369 -0.7867  0.7641
  132SOL     OW 1019   4.608   3.672   1.792  0.3743  0.4175 -0.0007
  132SOL    HW1 1020   4.523   3.726   1.795 -0.2171 -0.5168  0.6240
  132SOL    HW2 1021   4.637   3.661   1.697 -0.7967 -0.1535 -0.3129
  133SOL     OW 1022   4.627   3.385   0.965  0.4751 -0.4725 -0.2933
  133SOL    HW1 1023   4.721   3.413   0.985  0.7711 -0.3070 -1.7743
  133SOL    HW2 1024   4.627   3.320   0.889 -0.5468 -1.2295  0.3309
  134SOL     OW 1025   4.020   0.251   3.807  0.2155  0.0608  0.0438
  134SOL    HW1 1026   3.959   0.177   3.779  1.0275 -1.1476  1.3564
  134SOL    HW2 1027   4.035   0.313   3.730 -0.2217 -1.3193 -1.1796
  135SOL     OW 1028   0.363   1.100   2.617 -0.6909 -0.5119 -0.0305
  135SOL    HW1 1029   0.287   1.084   2.555  0.0074  1.1501 -1.3886
  135SOL    HW2 1030   0.387   1.014   2.663 -2.0970 -1.4857 -1.0320
  136SOL     OW 1031   4.784   0.539   3.072 -0.4020  0.0930 -0.3468
  136SOL    HW1 1032   4.734   0.501   3.149  3.5150 -1.4064  1.7131
  136SOL    HW2 1033   4.761   0.487   2.989  0.0304 -2.6615  1.1294
  137SOL     OW 1034   2.602   2.592   1.525  0.3027  0.0274 -0.3084
  137SOL    HW1 1035   2.682   2.548   1.565 -0.4491 -0.9454  0.1787
  137SOL    HW2 1036   2.625   2.627   1.434  1.4728  0.4530  0.1330
  138SOL     OW 1037   0.673   3.041   2.552  0.0013 -0.3550 -0.1800
  138SOL    HW1 1038   0.688   3.139   2.561  1.2368 -0.6155  1.0024
  138SOL    HW2 1039   0.760   2.993   2.567 -0.8826 -1.6976  0.8825
  139SOL     OW 1040   4.905   0.084   1.612  0.0991 -0.8857 -0.1618
  139SOL    HW1 1041   4.816   0.110   1.575  0.9478 -0.5407 -2.1223
  139SOL    HW2 1042   4.921  -0.014   1.595  1.7984 -0.1544 -3.9785
  140SOL     OW 1043   4.085   3.933   4.057 -0.0480  0.1007 -0.0248
  140SOL    HW1 1044   4.071   3.855   3.996  0.9922 -1.4656  1.6503
  140SOL    HW2 1045   4.173   3.976   4.037  1.5046 -1.9690  1.8722
  141SOL     OW 1046   4.280   3.751   1.359  0.4485 -0.5415  0.3418
  141SOL    HW1 1047   4.363   3.724   1.309  0.0187  0.1119 -0.7569
  141SOL    HW2 1048   4.280   3.850   1.372 -0.0227 -0.5738  0.6088
  142SOL     OW 1049   0.326   4.595   4.056  0.0058  0.5219  0.3408
  142SOL    HW1 1050   0.310   4.563   3.962 -0.0898  2.7316 -0.4346
  142SOL    HW2 1051   0.349   4.692   4.055  0.9376  0.3717  2.5521
  143SOL     OW 1052   3.602   3.297   3.462 -0.0489 -0.3814 -0.8052
  143SOL    HW1 1053   3.693   3.292   3.421  0.5133  2.3692 -0.0551
  143SOL    HW2 1054   3.598   3.236   3.541 -0.0623 -3.1468 -2.7571
  144SOL     OW 1055   0.297   4.101   1.839 -0.0545 -0.3469  0.3333
  144SOL    HW1 1056   0.218   4.129   1.894  0.6707 -0.7924  1.6434
  144SOL    HW2 1057   0.295   4.002   1.826  1.2476 -0.6372  2.0020
  145SOL     OW 1058   0.633   1.621   4.198  0.1458  0.5688 -0.0199
  145SOL    HW1 1059   0.667   1.538   4.154 -0.6036  1.3601 -2.2423
  145SOL    HW2 1060   0.703   1.659   4.258  1.3635 -0.3979 -0.7861
  146SOL     OW 1061   3.942   2.075   2.527  0.1032 -0.2500 -0.3828
  146SOL    HW1 1062   3.928   2.173   2.533  2.1324 -0.0231  2.3137
  146SOL    HW2 1063   4.019   2.055   2.466  2.5095  0.2948  2.2604
  147SOL     OW 1064   1.158   0.414   1.169  0.6240  0.0053  0.5369
  147SOL    HW1 1065   1.219   0.345   1.131  0.7036  0.5486 -0.3700
  147SOL    HW2 1066   1.204   0.503   1.167 -1.6100  1.4621 -4.6814
  148SOL     OW 1067   4.622   2.775   3.057 -0.0093  0.6879  0.6948
  148SOL    HW1 1068   4.706   2.807   3.102  0.9432 -0.7736  0.0361
  148SOL    HW2 1069   4.589   2.693   3.105  0.1276  0.0432 -0.2873
  149SOL     OW 1070   1.237   2.372   0.333  0.1858 -0.4401  0.2149
  149SOL    HW1 1071   1.214   2.277   0.354  0.1783 -0.2130  1.3105
  149SOL    HW2 1072   1.191   2.400   0.249  1.3611 -1.8512 -0.9551
  150SOL     OW 1073   2.280   0.965   3.616 -0.1403 -0.1012  0.2654
  150SOL    HW1 1074   2.367   0.917   3.602 -1.2082 -2.2489  0.6002
  150SOL    HW2 1075   2.294   1.041   3.680  1.0875 -1.7377  2.0370
  151SOL     OW 1076   1.133   0.855   1.815 -0.0432 -0.2765  0.4987
  151SOL    HW1 1077   1.075   0.916   1.762 -0.3070 -1.8154 -1.0709
  151SOL    HW2 1078   1.211   0.906   1.851 -0.2969  0.9974 -0.6732
  152SOL     OW 1079   2.351   1.755   1.703  0.4845  0.2349 -0.1357
  152SOL    HW1 1080   2.267   1.703   1.689 -0.6243  1.8907  0.1852
  152SOL    HW2 1081   2.412   1.741   1.625  0.9780 -2.8484  0.6693
  153SOL     OW 1082   3.295   4.040   3.435 -0.2453  0.5319 -0.0218
  153SOL    HW1 1083   3.233   4.111   3.467  1.0546  2.0221 -0.7067
  153SOL    HW2 1084   3.307   3.972   3.508 -0.3558  1.7852  1.2090
  154SOL     OW 1085   2.896   3.653   2.329 -0.2237  0.1362 -0.4939
  154SOL    HW1 1086   2.888   3.701   2.242  2.8704  1.6426 -0.1165
  154SOL    HW2 1087   2.880   3.718   2.404 -0.7910 -0.6279  0.0507
  155SOL     OW 1088   0.159   2.625   2.987 -0.3817 -0.1307  0.0220
  155SOL    HW1 1089   0.205   2.694   2.931 -0.7288 -0.1785 -0.3246
  155SOL    HW2 1090   0.061   2.624   2.966 -0.6707  0.4291  1.2243
  156SOL     OW 1091   1.890   1.504   3.867  0.3933 -0.2869 -0.0423
  156SOL    HW1 1092   1.833   1.556   3.803  1.6381  0.8443 -0.2796
  156SOL    HW2 1093   1.970   1.468   3.818  0.4587 -0.9066  0.5120
  157SOL     OW 1094   1.662   0.763   0.591  0.2973 -0.1244 -0.4350
  157SOL    HW1 1095   1.726   0.752   0.667  0.3969 -1.3555 -0.6816
  157SOL    HW2 1096   1.575   0.719   0.614  0.2246 -0.2379 -0.9151
  158SOL     OW 1097   2.060   3.210   1.680  0.1695 -0.2493 -0.7109
  158SOL    HW1 1098   2.051   3.306   1.654 -1.5559  0.1601  1.1385
  158SOL    HW2 1099   2.115   3.203   1.763 -0.4678 -0.7602 -0.3219
  159SOL     OW 1100   0.709   1.972   4.466  0.4823 -0.0580 -1.0405
  159SOL    HW1 1101   0.620   1.991   4.424 -0.1612 -0.5955  0.0269
  159SOL    HW2 1102   0.747   1.888   4.427  0.0638 -0.3573 -0.8048
  160SOL     OW 1103   2.215   0.487   0.391 -0.0307  0.0919 -0.0793
  160SOL    HW1 1104   2.280   0.544   0.343  2.1809 -0.5677  1.9383
  160SOL    HW2 1105   2.189   0.531   0.478 -1.3098 -0.2538 -0.2547
  161SOL     OW 1106   2.360   1.541   4.064 -0.1535  0.1133 -0.1119
  161SOL    HW1 1107   2.456   1.512   4.068  0.7251  2.8044  0.2211
  161SOL    HW2 1108   2.323   1.543   4.157  0.5192  2.1061  0.1615
  162SOL     OW 1109   3.268   1.594   3.295  0.2108 -0.1814 -0.1482
  162SOL    HW1 1110   3.318   1.678   3.274  0.2890 -0.3070 -0.4691
  162SOL    HW2 1111   3.312   1.517   3.250  0.6471 -0.5248  0.8501
  163SOL     OW 1112   1.199   0.491   2.756 -0.6984  0.5642  0.2158
  163SOL    HW1 1113   1.104   0.473   2.730 -0.3176 -1.8207  0.2101
  163SOL    HW2 1114   1.213   0.461   2.850 -0.2143  2.0419  0.6403
  164SOL     OW 1115   4.230   2.559   1.027  0.1014  0.1807 -0.2625
  164SOL    HW1 1116   4.273   2.544   1.117 -0.4049  0.8710  0.1055
  164SOL    HW2 1117   4.301   2.581   0.960  0.4706 -0.1547  0.0116
  165SOL     OW 1118   3.357   3.708   0.230 -0.2796 -0.5538 -0.3078
  165SOL    HW1 1119   3.351   3.803   0.199  0.9111 -0.3822 -0.0671
  165SOL    HW2 1120   3.445   3.669   0.201 -0.3987 -1.3091  0.3224
  166SOL     OW 1121   0.010   2.423   0.051  0.1533  0.1478  0.4299
  166SOL    HW1 1122  -0.025   2.333   0.078 -0.0461 -0.3174 -1.2988
  166SOL    HW2 1123   0.091   2.412  -0.007 -0.0774  1.0745 -0.0903
  167SOL     OW 1124   0.090   0.297   3.233  0.0245 -0.0275 -0.4445
  167SOL    HW1 1125   0.100   0.395   3.215  0.2919 -0.1404 -0.9214
  167SOL    HW2 1126   0.030   0.283   3.312  0.3411  0.5344 -0.1072
  168SOL     OW 1127   1.985   1.528   4.256  0.3998  0.2570  0.4174
  168SOL    HW1 1128   1.889   1.516   4.282  0.5595 -0.1617  0.8210
  168SOL    HW2 1129   2.035   1.443   4.271  0.8705  0.5185  0.3529
  169SOL     OW 1130   4.326   1.372   4.521  0.3632  0.0814  0.6373
  169SOL    HW1 1131   4.413   1.338   4.484  0.2742 -1.1820  1.5183
  169SOL    HW2 1132   4.306   1.323   4.606 -0.8669  0.8700  0.8096
  170SOL     OW 1133   1.342   4.431   4.012  0.0136  0.2316  0.4799
  170SOL    HW1 1134   1.377   4.366   4.078  0.8859  1.8158  1.6560
  170SOL    HW2 1135   1.417   4.467   3.956 -0.0556  1.8000  1.3287
  171SOL     OW 1136   0.615   4.655   3.814 -0.0718 -0.3270  0.3896
  171SOL    HW1 1137   0.569   4.721   3.874 -1.5138 -1.3747  0.5060
  171SOL    HW2 1138   0.714   4.665   3.822 -0.2361  2.3033 -0.1718
  172SOL     OW 1139   2.016   0.327   4.058  0.2800  0.1382 -0.3921
  172SOL    HW1 1140   2.007   0.267   4.138  1.3863  0.0769 -0.2995
  172SOL    HW2 1141   2.081   0.401   4.079 -0.3233  0.8047 -0.8359
  173SOL     OW 1142   4.588   0.861   1.600  0.0169  0.4718  0.1531
  173SOL    HW1 1143   4.609   0.833   1.506  1.0667 -0.2950  0.5886
  173SOL    HW2 1144   4.561   0.780   1.653 -1.5411  1.0445  0.2884
  174SOL     OW 1145   4.861   0.266   3.459 -0.3761  0.1636  0.4190
  174SOL    HW1 1146   4.933   0.213   3.504 -0.0009  0.0525 -0.2911
  174SOL    HW2 1147   4.792   0.292   3.526  0.4890  0.5481  1.1854
  175SOL     OW 1148   2.790   3.294   3.060  0.5848 -0.4424 -0.0382
  175SOL    HW1 1149   2.780   3.196   3.040  1.6598 -0.0078 -3.2185
  175SOL    HW2 1150   2.874   3.307   3.114  0.5462 -1.2586  0.2407
  176SOL     OW 1151   2.233   4.696   1.643 -0.0541  0.2373  0.2292
  176SOL    HW1 1152   2.227   4.694   1.543 -0.8102  0.7839  0.2541
  176SOL    HW2 1153   2.234   4.603   1.679 -0.0283  0.0418 -0.2769
  177SOL     OW 1154   2.029   2.940   1.717 -0.0485  0.3156 -0.0434
  177SOL    HW1 1155   2.096   2.968   1.648  1.1407 -0.5759  0.6815
  177SOL    HW2 1156   1.997   3.020   1.768 -1.3567  1.0492 -1.9514
  178SOL     OW 1157   0.348   4.526   1.794  0.1703 -0.5892 -0.6522
  178SOL    HW1 1158   0.310   4.445   1.751 -0.2311 -0.1905 -1.0573
  178SOL    HW2 1159   0.274   4.586   1.824  0.4443  0.6950 -2.3994
  179SOL     OW 1160   2.469   1.715   1.453  0.2753 -0.1130  0.2171
  179SOL    HW1 1161   2.491   1.720   1.355  1.0629  0.8072  0.4176
  179SOL    HW2 1162   2.464   1.620   1.482 -1.1524 -0.4282 -0.9659
  180SOL     OW 1163   4.584   3.045   3.251 -0.5025 -0.4854  0.1332
  180SOL    HW1 1164   4.630   2.989   3.183 -1.2115 -1.8413  0.7402
  180SOL    HW2 1165   4.491   3.065   3.220 -0.0722  0.9049 -0.3564
  181SOL     OW 1166   2.797   0.880   0.863 -0.0954  0.4140  0.3626
  181SOL    HW1 1167   2.817   0.883   0.765  0.7931  0.1897  0.5260
  181SOL    HW2 1168   2.788   0.785   0.892  1.7237  0.3533  0.8734
  182SOL     OW 1169   1.573   4.603   2.495 -0.7723 -0.0931 -0.5078
  182SOL    HW1 1170   1.641   4.585   2.567 -0.5961 -2.2364 -1.1422
  182SOL    HW2 1171   1.482   4.603   2.534 -0.4989  3.7663  0.5343
  183SOL     OW 1172   3.271   3.378   0.911  0.2330  0.0577 -0.0376
  183SOL    HW1 1173   3.200   3.383   0.981  0.7983 -0.2529  0.5664
  183SOL    HW2 1174   3.290   3.470   0.876  1.1350  0.4451  1.4244
  184SOL     OW 1175   2.941   2.727   3.441  0.1241 -0.6784  0.1674
  184SOL    HW1 1176   2.917   2.631   3.425 -1.0676  0.0604 -3.0761
  184SOL    HW2 1177   3.030   2.747   3.400  0.3710 -0.3569  0.8315
  185SOL     OW 1178   3.523   4.053   3.298 -0.3038  0.3023  0.0132
  185SOL    HW1 1179   3.434   4.041   3.343  1.0920 -0.7468  2.7465
  185SOL    HW2 1180   3.596   4.027   3.362  1.9617  0.2647 -2.4261
  186SOL     OW 1181   3.221   3.004   1.647 -0.4209  0.3024 -0.1006
  186SOL    HW1 1182   3.136   3.055   1.661 -1.3718 -1.2954  0.2535
  186SOL    HW2 1183   3.275   3.047   1.575 -1.0778  1.8824  0.3120
  187SOL     OW 1184   2.832   4.128   2.919  0.0039 -0.1279 -0.0215
  187SOL    HW1 1185   2.932   4.121   2.916 -0.0414 -0.4290 -1.2179
  187SOL    HW2 1186   2.795   4.057   2.978  0.4637 -0.3760 -0.0287
  188SOL     OW 1187   1.664   1.506   1.439  0.3015  0.0978 -0.5231
  188SOL    HW1 1188   1.710   1.526   1.352  0.3832 -1.3439 -0.8371
  188SOL    HW2 1189   1.606   1.583   1.464 -0.8160  0.0004 -2.5897
  189SOL     OW 1190   0.157   3.452   4.727  0.0133 -0.1211 -0.4775
  189SOL    HW1 1191   0.131   3.383   4.660 -2.1659 -0.8173  0.9537
  189SOL    HW2 1192   0.107   3.436   4.813 -0.4481  3.0972  0.0020
  190SOL     OW 1193   4.075   1.326   2.628 -0.6921  0.0960  0.1386
  190SOL    HW1 1194   4.164   1.293   2.595 -0.3235  0.6781  0.5352
  190SOL    HW2 1195   4.040   1.395   2.564 -1.1191 -0.5164 -0.3020
  191SOL     OW 1196   2.299   3.953   0.087  0.3350  0.2518  0.1436
  191SOL    HW1 1197   2.215   3.898   0.089 -0.2036  1.0730  1.2736
  191SOL    HW2 1198   2.345   3.946   0.175  1.7336 -0.5599 -0.6192
  192SOL     OW 1199   1.915   3.094   2.801  0.3926 -0.2801  0.1544
  192SOL    HW1 1200   1.868   3.140   2.876  0.6516  0.0809  0.0959
  192SOL    HW2 1201   1.873   3.005   2.785  0.3676 -0.3795  0.7599
  193SOL     OW 1202   1.304   3.996   4.030  1.1546  0.0573  0.0773
  193SOL    HW1 1203   1.399   3.965   4.027  1.4880  1.0766 -0.6797
  193SOL    HW2 1204   1.280   4.041   3.944  0.6792  1.7200  1.0116
  194SOL     OW 1205   1.069   4.020   3.322  0.3312 -0.4630  0.1751
  194SOL    HW1 1206   0.989   4.078   3.309  1.6972  1.1224 -2.0381
  194SOL    HW2 1207   1.076   3.992   3.417 -2.8804 -0.7847  0.3965
  195SOL     OW 1208   1.649   3.236   3.576  0.4841 -0.4232  0.1603
  195SOL    HW1 1209   1.747   3.235   3.556  0.9200  1.4146  1.8647
  195SOL    HW2 1210   1.603   3.302   3.516  0.1696 -1.5863 -0.9272
  196SOL     OW 1211   0.423   1.835   1.965 -0.4359 -0.0113 -0.4896
  196SOL    HW1 1212   0.516   1.799   1.960 -0.8498 -0.9735 -1.8256
  196SOL    HW2 1213   0.422   1.928   1.928  0.0709  0.1769 -0.0406
  197SOL     OW 1214   3.199   3.549   2.811  0.2740  0.1875  0.0054
  197SOL    HW1 1215   3.162   3.569   2.720  2.6829  2.7045 -0.5346
  197SOL    HW2 1216   3.216   3.634   2.860  2.4407 -0.9209  1.3497
  198SOL     OW 1217   0.570   2.216   2.944 -0.7520  0.1166  0.0048
  198SOL    HW1 1218   0.652   2.251   2.897 -0.7753  0.2449  0.0612
  198SOL    HW2 1219   0.594   2.132   2.993 -0.8544 -0.3280 -0.6913
  199SOL     OW 1220   1.010   1.199   0.019 -0.0595 -0.0023 -0.3629
  199SOL    HW1 1221   0.990   1.215  -0.077 -1.9676  0.5830  0.0857
  199SOL    HW2 1222   1.109   1.201   0.034  0.3426 -1.2984 -2.4810
  200SOL     OW 1223   3.040   1.427   0.836 -0.7916  0.4752  0.2381
  200SOL    HW1 1224   2.988   1.351   0.798 -1.0935 -0.1276  1.7845
  200SOL    HW2 1225   3.040   1.421   0.936 -0.9322  2.5843  0.4124
  201SOL     OW 1226   2.738   0.180   0.439 -0.4720  0.1452 -0.0134
  201SOL    HW1 1227   2.825   0.132   0.452  0.2312  1.3968  0.0639
  201SOL    HW2 1228   2.663   0.115   0.447  0.5164 -1.4256 -2.2948
  202SOL     OW 1229   0.478   4.732   1.355  0.3111  0.4408 -0.0320
  202SOL    HW1 1230   0.440   4.811   1.307  1.0876  0.1709 -1.1450
  202SOL    HW2 1231   0.559   4.700   1.306 -0.1903 -1.2643  0.1845
  203SOL     OW 1232   3.511   1.873   0.330 -0.2537 -0.0827  0.4161
  203SOL    HW1 1233   3.487   1.969   0.344 -1.1013 -0.4346  1.5373
  203SOL    HW2 1234   3.605   1.857   0.361  0.0901  0.4934 -0.3055
  204SOL     OW 1235   0.256   0.956   2.153 -0.0206 -0.0322  0.4613
  204SOL    HW1 1236   0.290   0.872   2.111  0.7331  0.7868 -0.6227
  204SOL    HW2 1237   0.170   0.983   2.110 -0.1002 -0.0756  0.5917
  205SOL     OW 1238   2.244   1.238   0.726  0.5136 -0.0450 -0.4723
  205SOL    HW1 1239   2.267   1.141   0.715 -2.9659 -0.9100 -1.3640
  205SOL    HW2 1240   2.223   1.256   0.822 -2.1828 -1.1569 -0.7645
  206SOL     OW 1241   4.448   1.557   0.148  0.0232  0.2358 -0.7126
  206SOL    HW1 1242   4.423   1.609   0.067  0.4183  0.4869 -0.6735
  206SOL    HW2 1243   4.485   1.618   0.217 -1.6714  0.2591  0.2436
  207SOL     OW 1244   0.405   0.281   4.002 -0.5192  0.1989  0.4541
  207SOL    HW1 1245   0.427   0.318   4.092 -1.3986 -1.3715  1.3592
  207SOL    HW2 1246   0.487   0.242   3.960 -0.2795  0.1759  0.9428
  208SOL     OW 1247   4.581   1.089   4.778  0.5814  0.3198 -0.1285
  208SOL    HW1 1248   4.570   1.183   4.811  2.4139  0.4871  0.0750
  208SOL    HW2 1249   4.611   1.030   4.853  0.2059 -0.2746 -0.4353
  209SOL     OW 1250   3.671   2.705   4.468  0.2561 -0.6386 -0.2090
  209SOL    HW1 1251   3.746   2.760   4.433  0.7538 -0.6467  0.8076
  209SOL    HW2 1252   3.704   2.615   4.493 -0.3240 -1.0191 -0.7859
  210SOL     OW 1253   3.239   0.836   1.093 -0.3876  0.1748 -0.0237
  210SOL    HW1 1254   3.179   0.778   1.038  1.6752 -3.0592  0.8434
  210SOL    HW2 1255   3.331   0.836   1.054 -0.2568  2.7992  0.1438
  211SOL     OW 1256   2.622   2.407   3.207  0.1014 -0.3984  0.0170
  211SOL    HW1 1257   2.704   2.451   3.245  1.5705 -1.2212 -2.0056
  211SOL    HW2 1258   2.636   2.389   3.110 -1.8370 -2.1131 -0.0157
  212SOL     OW 1259   3.804   0.337   3.276  0.3777  0.0381 -0.2804
  212SOL    HW1 1260   3.722   0.362   3.225  0.7784  1.6805 -0.1937
  212SOL    HW2 1261   3.804   0.239   3.295 -2.0012  0.1210  0.4860
  213SOL     OW 1262   1.222   4.704   3.984  0.3466  0.6549 -0.4332
  213SOL    HW1 1263   1.151   4.638   4.009  0.5789 -0.2605 -2.0209
  213SOL    HW2 1264   1.249   4.689   3.889  2.6657  0.9798  0.1204
  214SOL     OW 1265   3.175   1.887   3.012 -0.8387 -0.3878 -0.4325
  214SOL    HW1 1266   3.203   1.795   2.988  0.3414 -0.1345 -0.0852
  214SOL    HW2 1267   3.189   1.948   2.934 -1.4800 -0.4632 -0.6144
  215SOL     OW 1268   3.636   0.900   1.603 -0.0585  0.1823  0.4316
  215SOL    HW1 1269   3.736   0.902   1.599 -0.0482  0.2576  0.6975
  215SOL    HW2 1270   3.599   0.925   1.514  0.1605  0.3021  0.3735
  216SOL     OW 1271   4.733   3.978   4.040  0.1823 -0.0836  0.5107
  216SOL    HW1 1272   4.783   3.960   3.956 -1.5081 -0.1304 -0.5295
  216SOL    HW2 1273   4.716   3.892   4.089  0.8430 -0.1001  0.7115
  217SOL     OW 1274   4.246   3.383   1.590  0.5742 -0.0197  0.1906
  217SOL    HW1 1275   4.255   3.300   1.536  0.0024 -0.8155  1.3001
  217SOL    HW2 1276   4.337   3.419   1.611  0.8305  1.1513 -2.5159
  218SOL     OW 1277   3.901   0.620   2.946 -0.2884  0.1243 -0.0716
  218SOL    HW1 1278   3.929   0.715   2.951 -1.2574  0.3652  1.1708
  218SOL    HW2 1279   3.981   0.561   2.959  0.0811  0.7787  0.6911
  219SOL     OW 1280   0.284   4.495   3.815  0.4819 -0.0129  0.0386
  219SOL    HW1 1281   0.247   4.506   3.723  0.6197  0.5894  0.0565
  219SOL    HW2 1282   0.375   4.455   3.810  0.8309  0.7931 -0.1319
  220SOL     OW 1283   1.919   3.133   0.632  0.5358 -0.2353  0.3493
  220SOL    HW1 1284   2.011   3.131   0.592 -0.5766  0.7008 -2.5459
  220SOL    HW2 1285   1.861   3.067   0.583 -0.9503  1.0344  0.3321
  221SOL     OW 1286   0.072   2.617   0.214 -0.3526 -0.1846 -0.1111
  221SOL    HW1 1287   0.141   2.604   0.285 -1.3151  0.5620  0.9862
  221SOL    HW2 1288   0.052   2.528   0.172 -0.1125 -0.7181  0.8625
  222SOL     OW 1289   0.231   3.348   1.378 -0.1883 -0.4899  0.1449
  222SOL    HW1 1290   0.134   3.323   1.384 -0.4454  0.7135  2.3818
  222SOL    HW2 1291   0.286   3.265   1.373 -1.2890 -1.2417 -0.0219
  223SOL     OW 1292   1.532   3.509   3.026 -0.3963  0.1213  0.1396
  223SOL    HW1 1293   1.599   3.448   2.985 -1.1180 -0.2531 -0.5189
  223SOL    HW2 1294   1.479   3.553   2.953 -0.0786  1.3183  0.6147
  224SOL     OW 1295   1.270   3.844   2.350  0.1335 -0.0622  0.0124
  224SOL    HW1 1296   1.173   3.826   2.342  0.2201 -0.9217  0.7390
  224SOL    HW2 1297   1.301   3.898   2.272 -0.8199 -0.2132 -0.4772
  225SOL     OW 1298   2.774   2.920   1.389 -0.0644 -0.1322 -0.4873
  225SOL    HW1 1299   2.868   2.905   1.419 -0.5719  0.7492  1.7577
  225SOL    HW2 1300   2.736   2.834   1.354  0.6286 -1.2757  1.4259
  226SOL     OW 1301   1.429   0.681   0.683 -0.0655 -0.4585  0.4365
  226SOL    HW1 1302   1.441   0.586   0.711 -1.0418 -0.6164  0.3510
  226SOL    HW2 1303   1.368   0.727   0.747  1.6706  0.5867  1.4330
  227SOL     OW 1304   4.031   1.224   0.216  1.0084  0.1127 -0.3688
  227SOL    HW1 1305   3.943   1.187   0.244 -0.2842  2.4926 -0.9555
  227SOL    HW2 1306   4.025   1.256   0.122  1.2352  3.6291  0.6617
  228SOL     OW 1307   0.369   4.852   4.021 -0.1368 -0.0658  0.5844
  228SOL    HW1 1308   0.299   4.864   3.950  1.6028 -0.5802 -1.3078
  228SOL    HW2 1309   0.428   4.932   4.022  0.7782 -0.7272  0.3553
  229SOL     OW 1310   2.155   1.983   1.671  0.4919  0.0730  0.5901
  229SOL    HW1 1311   2.127   2.032   1.588 -2.7873 -0.9531  0.9295
  229SOL    HW2 1312   2.207   1.902   1.646 -0.2669 -0.1055 -0.4941
  230SOL     OW 1313   3.693   4.403   3.400  0.7666  0.1468  0.0077
  230SOL    HW1 1314   3.791   4.385   3.392  0.9890  1.8826 -2.2992
  230SOL    HW2 1315   3.645   4.361   3.324 -0.1897  0.0671  0.6377
  231SOL     OW 1316   2.617   4.439   1.258  0.3836  0.4905  0.5103
  231SOL    HW1 1317   2.624   4.417   1.161 -0.6977  0.3199  0.4547
  231SOL    HW2 1318   2.689   4.503   1.283  0.4640  0.8085 -0.4855
  232SOL     OW 1319   0.852   2.263   4.895 -0.2317 -0.2525 -0.3349
  232SOL    HW1 1320   0.757   2.289   4.874 -0.2296  0.3956  0.4351
  232SOL    HW2 1321   0.855   2.165   4.918 -0.7648 -0.2013 -0.0251
  233SOL     OW 1322   2.278   4.871   1.834 -0.2799  0.0467  0.1224
  233SOL    HW1 1323   2.238   4.812   1.764  0.3238  1.5004 -1.4915
  233SOL    HW2 1324   2.241   4.964   1.825  0.3333  0.4300  1.2905
  234SOL     OW 1325   4.636   2.821   1.855 -0.0172  0.7249 -0.1758
  234SOL    HW1 1326   4.619   2.874   1.938  0.4556  0.0823  0.3407
  234SOL    HW2 1327   4.549   2.782   1.822 -0.2520  1.2256 -0.1563
  235SOL     OW 1328   2.738   1.135   4.540  0.2326  0.1636  0.1366
  235SOL    HW1 1329   2.830   1.166   4.561  1.2221 -2.4410  0.0172
  235SOL    HW2 1330   2.681   1.142   4.622  0.8479  0.6878  0.5303
  236SOL     OW 1331   0.806   0.839   3.686  0.1370  0.0921 -0.3371
  236SOL    HW1 1332   0.905   0.847   3.696  0.2281 -1.0452 -0.1828
  236SOL    HW2 1333   0.770   0.920   3.639  1.3580 -0.2514 -1.9425
  237SOL     OW 1334   0.119   2.702   4.315  0.1843  0.5827 -0.7090
  237SOL    HW1 1335   0.192   2.738   4.373 -0.6609  1.2732 -0.0447
  237SOL    HW2 1336   0.141   2.720   4.219  2.0509 -1.4151 -0.7213
  238SOL     OW 1337   1.376   1.602   3.385  0.1694  0.3028  0.4001
  238SOL    HW1 1338   1.405   1.547   3.307 -0.6359  0.9958 -0.4027
  238SOL    HW2 1339   1.341   1.690   3.353  0.8896  1.0740  1.6162
  239SOL     OW 1340   0.717   4.741   0.716 -0.1914 -0.2990  0.0254
  239SOL    HW1 1341   0.639   4.692   0.679 -0.0008 -0.6245  0.0522
  239SOL    HW2 1342   0.718   4.835   0.681 -1.2731  0.0831  0.9712
  240SOL     OW 1343   1.088   3.938   3.582  0.0206  0.2003 -0.6084
  240SOL    HW1 1344   1.016   3.868   3.574  1.6299 -1.6273  0.1927
  240SOL    HW2 1345   1.075   3.989   3.666 -0.7338  0.3627 -0.8149
  241SOL     OW 1346   4.054   0.654   0.756 -0.4872 -0.5099 -0.4293
  241SOL    HW1 1347   4.076   0.556   0.749  1.8328 -0.0574 -0.3324
  241SOL    HW2 1348   4.094   0.691   0.839 -0.7365  0.6723 -0.8194
  242SOL     OW 1349   4.401   1.033   0.875  0.1499 -0.2465  0.1938
  242SOL    HW1 1350   4.463   0.958   0.897  1.5874  1.1398  1.1091
  242SOL    HW2 1351   4.430   1.077   0.790 -0.8998 -0.9267 -0.5305
  243SOL     OW 1352   0.607   0.922   4.677  0.1946 -0.4696  0.5555
  243SOL    HW1 1353   0.542   0.867   4.623 -1.4073  0.2330  1.6891
  243SOL    HW2 1354   0.599   0.897   4.774 -0.8799  1.9496  1.1715
  244SOL     OW 1355   2.029   4.567   2.587  0.3058  0.2803 -0.6218
  244SOL    HW1 1356   2.012   4.664   2.603  0.8601  0.5172 -1.3969
  244SOL    HW2 1357   1.992   4.540   2.498 -2.4081 -0.9334  0.7602
  245SOL     OW 1358   2.868   0.105   1.373 -0.1419  0.1904  0.1989
  245SOL    HW1 1359   2.876   0.128   1.276  1.1137 -2.1430 -0.3275
  245SOL    HW2 1360   2.814   0.021   1.383  2.7335 -1.6823  1.1106
  246SOL     OW 1361   2.662   4.397   2.140 -0.1646  0.7916  0.5392
  246SOL    HW1 1362   2.748   4.446   2.160 -0.8647  1.8016  1.1696
  246SOL    HW2 1363   2.590   4.464   2.121 -0.3922 -0.0607 -1.9805
  247SOL     OW 1364   1.949   4.621   3.546  0.4064  0.9346 -0.4553
  247SOL    HW1 1365   1.922   4.699   3.490  0.5713  0.1993 -1.5747
  247SOL    HW2 1366   1.933   4.536   3.497  0.3448  0.2477  0.7004
  248SOL     OW 1367   2.223   3.487   3.837 -0.3599  0.3795 -0.2129
  248SOL    HW1 1368   2.158   3.479   3.762  0.0587  0.4818 -0.5877
  248SOL    HW2 1369   2.304   3.433   3.817 -0.1625  0.5679  0.0734
  249SOL     OW 1370   1.271   0.596   1.757  0.0794  0.1101  0.0796
  249SOL    HW1 1371   1.224   0.671   1.804 -1.5751 -0.4800 -0.5546
  249SOL    HW2 1372   1.363   0.585   1.795 -0.0382  1.7358  0.9275
  250SOL     OW 1373   2.836   1.613   3.814  0.2022 -0.2979  0.8616
  250SOL    HW1 1374   2.889   1.645   3.735  0.0362  0.8432  1.1977
  250SOL    HW2 1375   2.898   1.591   3.888  0.2294  1.8050  1.5340
  251SOL     OW 1376   0.244   4.583   1.322  0.0108 -0.4841 -0.2552
  251SOL    HW1 1377   0.262   4.492   1.360  0.8002 -0.4267 -0.4762
  251SOL    HW2 1378   0.314   4.646   1.352 -0.1447 -0.1083 -0.6769
  252SOL     OW 1379   1.562   3.265   4.665 -0.5913  0.3315 -0.2028
  252SOL    HW1 1380   1.609   3.317   4.736  2.4948 -0.3765 -1.5924
  252SOL    HW2 1381   1.556   3.169   4.692  1.1004 -0.0450 -1.0839
  253SOL     OW 1382   3.960   0.103   1.598 -0.0892  0.4273  0.1728
  253SOL    HW1 1383   3.900   0.131   1.673  1.1574 -0.2606  1.4744
  253SOL    HW2 1384   4.029   0.173   1.582  0.8968 -0.3146  1.0748
  254SOL     OW 1385   2.963   1.466   2.929 -0.1053  0.1817  0.3187
  254SOL    HW1 1386   3.006   1.533   2.990 -1.8174 -0.6759  2.6247
  254SOL    HW2 1387   3.016   1.381   2.932 -0.2501  0.1015  0.7457
  255SOL     OW 1388   3.971   2.584   0.489  0.2469 -0.1750 -0.1591
  255SOL    HW1 1389   4.013   2.599   0.399 -2.0157 -1.9605 -1.6449
  255SOL    HW2 1390   3.918   2.665   0.514 -2.5216 -1.0244 -2.5840
  256SOL     OW 1391   3.696   1.856   2.106 -0.2111  0.4737 -0.2906
  256SOL    HW1 1392   3.774   1.816   2.155 -0.1773  0.1126 -0.6353
  256SOL    HW2 1393   3.611   1.812   2.136 -0.1795  0.1771 -0.6329
  257SOL     OW 1394   0.073   4.596   4.893 -0.4007 -0.3296 -0.3822
  257SOL    HW1 1395   0.059   4.651   4.810 -2.3069  0.0238  0.1205
  257SOL    HW2 1396   0.170   4.572   4.901  0.0183  0.5981 -2.0903
  258SOL     OW 1397   0.450   4.829   3.112  0.2642  0.4158  0.4772
  258SOL    HW1 1398   0.387   4.850   3.037 -0.1533  1.1333  1.0117
  258SOL    HW2 1399   0.510   4.754   3.086 -0.3238  0.2161 -0.3235
  259SOL     OW 1400   0.584   4.305   1.687 -0.2082 -0.5588  0.3199
  259SOL    HW1 1401   0.684   4.308   1.696 -0.2188  2.6910  0.4455
  259SOL    HW2 1402   0.543   4.359   1.760 -1.8606  0.9172 -1.5984
  260SOL     OW 1403   1.104   3.192   2.702 -0.1863  0.0214 -0.4773
  260SOL    HW1 1404   1.101   3.204   2.603  0.3642  2.7993 -0.2405
  260SOL    HW2 1405   1.188   3.143   2.727  1.4243  2.2120 -1.2558
  261SOL     OW 1406   1.790   1.113   0.239  0.5492 -0.2068  0.2221
  261SOL    HW1 1407   1.841   1.181   0.186 -0.7998 -0.4589 -1.5240
  261SOL    HW2 1408   1.835   1.024   0.234  0.4934 -0.2025 -0.4588
  262SOL     OW 1409   3.090   0.582   4.418  0.2635  0.2279 -0.0457
  262SOL    HW1 1410   3.169   0.627   4.375 -1.0497  0.9611 -1.8271
  262SOL    HW2 1411   3.065   0.501   4.365  0.1447 -0.3122  0.8280
  263SOL     OW 1412   4.518   1.153   3.000 -0.2611  0.3362  0.1708
  263SOL    HW1 1413   4.487   1.089   3.070 -1.6966  0.7753 -0.0212
  263SOL    HW2 1414   4.475   1.242   3.015 -1.0942  0.2744 -1.5985
  264SOL     OW 1415   2.746   0.974   0.001  0.3222  0.4783  0.1293
  264SOL    HW1 1416   2.663   1.000  -0.048  0.4431  0.6963  0.0398
  264SOL    HW2 1417   2.801   0.914  -0.056 -0.2036 -0.4058  0.5316
  265SOL     OW 1418   4.453   4.124   2.116 -0.0301 -0.4870  0.5008
  265SOL    HW1 1419   4.388   4.058   2.079 -0.9647 -0.3377  1.8392
  265SOL    HW2 1420   4.460   4.202   2.053  0.6087 -1.5128 -0.7745
  266SOL     OW 1421   1.818   4.581   4.770  0.0965 -0.4694  0.6928
  266SOL    HW1 1422   1.912   4.573   4.737 -0.3073  0.4408 -0.7772
  266SOL    HW2 1423   1.802   4.512   4.841  1.2642 -2.0306 -0.4681
  267SOL     OW 1424   1.996   4.437   0.634 -0.2802 -0.4593  0.2656
  267SOL    HW1 1425   2.073   4.378   0.610 -0.7434 -0.7521 -0.5493
  267SOL    HW2 1426   2.030   4.526   0.665  0.3823  0.0908 -1.8758
  268SOL     OW 1427   3.633   3.686   3.805 -0.2133  0.2150  0.0464
  268SOL    HW1 1428   3.694   3.765   3.807  0.9426 -0.6615  0.2781
  268SOL    HW2 1429   3.672   3.612   3.860 -1.3701 -0.4559 -0.0007
  269SOL     OW 1430   3.759   4.512   1.907 -0.4692 -0.1027  0.0086
  269SOL    HW1 1431   3.742   4.468   1.995  2.5987  0.1662  0.8661
  269SOL    HW2 1432   3.840   4.472   1.865  1.2332  3.1679 -0.1588
  270SOL     OW 1433   1.230   4.489   4.718 -0.1137  0.3298  0.0514
  270SOL    HW1 1434   1.148   4.479   4.662  0.9996 -0.2327 -1.5184
  270SOL    HW2 1435   1.211   4.454   4.810 -1.0642 -1.6499 -0.8473
  271SOL     OW 1436   3.030   4.447   1.346  0.3148  0.3348  0.2241
  271SOL    HW1 1437   3.031   4.534   1.298 -0.5924 -0.1106 -0.6276
  271SOL    HW2 1438   3.083   4.455   1.431  0.2910  1.6830  0.1273
  272SOL     OW 1439   0.203   2.891   2.441 -1.0745 -0.1554  0.4678
  272SOL    HW1 1440   0.257   2.965   2.483 -1.1751  0.4813 -0.4869
  272SOL    HW2 1441   0.237   2.803   2.474  0.6774  0.2160 -0.2285
  273SOL     OW 1442   1.241   0.169   2.353 -0.2968  0.0723 -0.0411
  273SOL    HW1 1443   1.185   0.087   2.354  1.1458 -0.9582 -0.5594
  273SOL    HW2 1444   1.301   0.171   2.433  2.2712 -1.3343 -1.7715
  274SOL     OW 1445   4.400   4.395   3.812  0.6208  0.2801 -0.1241
  274SOL    HW1 1446   4.418   4.459   3.887 -1.0188  2.3449 -1.3750
  274SOL    HW2 1447   4.482   4.387   3.755  1.3363  0.0215  0.9189
  275SOL     OW 1448   0.270   4.570   2.574 -0.8370 -0.1670  0.5035
  275SOL    HW1 1449   0.188   4.523   2.540 -0.3271 -0.6207 -0.1184
  275SOL    HW2 1450   0.249   4.615   2.660 -1.6709 -0.5117  0.4886
  276SOL     OW 1451   0.792   1.827   0.288 -0.4250  0.7301  0.1032
  276SOL    HW1 1452   0.815   1.731   0.305 -0.0977  0.5282 -1.3203
  276SOL    HW2 1453   0.732   1.860   0.361  0.2809 -0.2443  1.1564
  277SOL     OW 1454   3.625   0.922   2.410 -0.2896 -0.0661 -0.2834
  277SOL    HW1 1455   3.648   0.865   2.332  1.2964  1.1888 -0.7968
  277SOL    HW2 1456   3.586   1.009   2.378 -1.0207 -0.1245  0.4012
  278SOL     OW 1457   1.279   1.515   1.296  0.0545  0.1739 -0.2973
  278SOL    HW1 1458   1.241   1.605   1.314 -0.7805  0.0056 -1.1272
  278SOL    HW2 1459   1.209   1.445   1.313  0.7459 -0.3366  0.5135
  279SOL     OW 1460   4.151   2.078   1.639  0.9384  0.0054  0.0288
  279SOL    HW1 1461   4.177   2.108   1.547  0.3795 -1.2119 -0.5453
  279SOL    HW2 1462   4.060   2.115   1.661  0.5775 -0.6353 -0.3726
  280SOL     OW 1463   1.326   2.791   1.019 -0.2228  0.3731 -0.6057
  280SOL    HW1 1464   1.385   2.723   1.062 -0.3013  0.6671 -0.0143
  280SOL    HW2 1465   1.233   2.781   1.053 -0.2304  0.7829 -0.4991
  281SOL     OW 1466   0.007   1.005   2.040  0.0158  0.5978  0.2856
  281SOL    HW1 1467  -0.061   1.074   2.064 -1.6494 -0.3316 -1.4720
  281SOL    HW2 1468   0.035   1.018   1.945  2.1860  0.8034  0.8962
  282SOL     OW 1469   2.811   3.605   1.389  0.0677 -0.0837 -0.0549
  282SOL    HW1 1470   2.886   3.542   1.411  0.3479  0.4000  0.4216
  282SOL    HW2 1471   2.758   3.622   1.472 -1.6618 -1.7937 -0.7392
  283SOL     OW 1472   3.070   4.480   3.683  0.3559 -0.3080  0.9255
  283SOL    HW1 1473   3.113   4.524   3.762 -0.3374 -1.0991  1.7594
  283SOL    HW2 1474   2.971   4.471   3.700 -0.1429  1.1778 -0.8058
  284SOL     OW 1475   2.305   3.338   4.455  0.3808 -0.1623  0.1818
  284SOL    HW1 1476   2.256   3.253   4.435  0.3156  0.3292 -1.9212
  284SOL    HW2 1477   2.401   3.317   4.473  0.1965 -0.7470  0.5190
  285SOL     OW 1478   1.211   2.526   4.686  0.0912  0.7871  0.3988
  285SOL    HW1 1479   1.259   2.507   4.600  2.0986 -2.0966  1.9890
  285SOL    HW2 1480   1.128   2.471   4.689 -0.5779  1.7326 -0.0921
  286SOL     OW 1481   4.737   1.784   0.042 -0.1152  0.2585 -0.2040
  286SOL    HW1 1482   4.788   1.723   0.103 -1.5812 -1.4535 -0.6067
  286SOL    HW2 1483   4.801   1.833  -0.017  1.1425 -0.5124  0.4692
  287SOL     OW 1484   1.620   4.124   4.300 -0.6596  0.3876 -0.4169
  287SOL    HW1 1485   1.566   4.086   4.375 -1.4006 -0.9692 -1.5799
  287SOL    HW2 1486   1.697   4.063   4.280 -0.1731  0.9971 -0.4453
  288SOL     OW 1487   0.387   3.638   4.314 -0.2349  0.4933 -0.9781
  288SOL    HW1 1488   0.345   3.728   4.301 -1.3531  0.1029 -0.1992
  288SOL    HW2 1489   0.370   3.607   4.407  0.0101 -0.5982 -1.2884
  289SOL     OW 1490   1.554   2.167   2.060 -0.4151 -0.0872 -0.0037
  289SOL    HW1 1491   1.626   2.129   2.001 -0.5803 -0.3718 -0.0227
  289SOL    HW2 1492   1.506   2.093   2.106 -0.2630  0.1379  0.5221
  290SOL     OW 1493   4.773   3.934   1.954  0.0647 -0.0694 -0.3401
  290SOL    HW1 1494   4.760   3.894   2.045  2.5204  0.6315  0.4019
  290SOL    HW2 1495   4.706   4.006   1.940 -0.0218  0.1869  1.1700
  291SOL     OW 1496   2.282   0.216   4.580 -0.8670  0.4912 -0.2084
  291SOL    HW1 1497   2.291   0.117   4.584  0.3301  0.5970  0.0704
  291SOL    HW2 1498   2.240   0.242   4.493 -2.8141 -0.3337  0.4246
  292SOL     OW 1499   0.649   0.513   2.788 -0.8186  0.2959 -0.2146
  292SOL    HW1 1500   0.679   0.527   2.882  0.7963 -1.7898 -0.3527
  292SOL    HW2 1501   0.660   0.598   2.736 -1.4094  1.3739  1.3636
  293SOL     OW 1502   1.570   3.853   3.996 -0.2453 -0.0699 -0.0150
  293SOL    HW1 1503   1.611   3.791   4.062 -0.7934 -0.6940 -0.2431
  293SOL    HW2 1504   1.637   3.921   3.966  0.8291 -1.4807 -0.9028
  294SOL     OW 1505   4.486   1.505   4.019  0.0947  0.3037  0.6393
  294SOL    HW1 1506   4.482   1.605   4.029 -2.2534  0.4985 -1.2661
  294SOL    HW2 1507   4.517   1.483   3.926 -0.5662 -0.6929  0.6432
  295SOL     OW 1508   0.958   0.313   0.984 -0.4290 -0.6839  0.3807
  295SOL    HW1 1509   0.900   0.252   1.037  0.4469 -0.3659  1.7377
  295SOL    HW2 1510   1.013   0.369   1.045  0.2369  0.0713 -0.8626
  296SOL     OW 1511   4.161   0.299   1.210 -0.3752 -0.1931  0.8073
  296SOL    HW1 1512   4.098   0.359   1.164  0.4087 -0.6847 -0.9888
  296SOL    HW2 1513   4.211   0.350   1.280 -0.1146  1.1166 -0.2970
  297SOL     OW 1514   4.213   0.763   4.786  0.0754 -0.6845 -0.0648
  297SOL    HW1 1515   4.178   0.729   4.873 -0.6158 -0.5667 -0.2911
  297SOL    HW2 1516   4.138   0.772   4.721  0.3395  0.5848 -0.2342
  298SOL     OW 1517   1.888   0.141   4.866 -0.2034  0.1716  0.2801
  298SOL    HW1 1518   1.792   0.153   4.840 -0.2113 -0.6101 -0.1015
  298SOL    HW2 1519   1.935   0.091   4.793  1.5613  4.1777 -1.6313
  299SOL     OW 1520   2.264   0.463   4.678 -0.6107 -0.0973 -0.0412
  299SOL    HW1 1521   2.284   0.366   4.663 -0.9881 -0.3907  1.2689
  299SOL    HW2 1522   2.179   0.487   4.631 -0.0970 -0.1808 -1.0534
  300SOL     OW 1523   4.537   0.329   4.609 -0.5510  0.2365 -0.3671
  300SOL    HW1 1524   4.441   0.305   4.601 -1.0863  1.9535  0.4225
  300SOL    HW2 1525   4.571   0.302   4.699 -0.4448  0.1103 -0.4449
  301SOL     OW 1526   1.385   1.468   0.605 -0.4568  0.0073  0.2661
  301SOL    HW1 1527   1.411   1.379   0.642 -0.6356 -0.3456 -0.4543
  301SOL    HW2 1528   1.438   1.540   0.650  0.0390 -0.5015  0.4954
  302SOL     OW 1529   0.834   2.271   2.834 -0.4993  0.6894  0.3225
  302SOL    HW1 1530   0.881   2.184   2.825 -0.5692  0.8778 -2.7703
  302SOL    HW2 1531   0.885   2.330   2.897  0.1709 -1.1036  1.5559
  303SOL     OW 1532   3.402   4.499   2.188  0.1254 -0.6781  0.0155
  303SOL    HW1 1533   3.354   4.556   2.255 -0.0206 -0.1046 -0.5719
  303SOL    HW2 1534   3.501   4.511   2.200  0.1286 -1.3801  0.8096
  304SOL     OW 1535   1.864   0.242   2.799 -0.2722  0.1821 -0.4630
  304SOL    HW1 1536   1.931   0.219   2.871 -1.5562  0.3148  0.8136
  304SOL    HW2 1537   1.782   0.186   2.812 -1.0469  1.1741 -1.0226
  305SOL     OW 1538   3.269   2.962   0.125  0.5267  0.2966 -0.2831
  305SOL    HW1 1539   3.199   2.896   0.153  2.2157 -1.9241 -1.0149
  305SOL    HW2 1540   3.283   3.028   0.199  0.9295 -2.0303  1.8905
  306SOL     OW 1541   3.549   3.249   3.920 -0.3612  0.0906  0.0570
  306SOL    HW1 1542   3.510   3.338   3.898 -0.5128  0.7546  2.6203
  306SOL    HW2 1543   3.479   3.191   3.961  0.1678 -0.5231  0.1206
  307SOL     OW 1544   3.420   2.908   0.971 -0.2768  0.0203  0.2453
  307SOL    HW1 1545   3.345   2.918   0.907 -1.0754  1.7949  1.3666
  307SOL    HW2 1546   3.507   2.910   0.921 -0.8894 -2.9934 -1.1677
  308SOL     OW 1547   0.906   0.353   1.929  0.0471  0.3702  0.0345
  308SOL    HW1 1548   0.952   0.354   2.017 -0.4272  2.4634  0.3123
  308SOL    HW2 1549   0.944   0.424   1.869  0.0729 -0.7236 -1.3128
  309SOL     OW 1550   2.599   2.791   0.054 -0.0018  0.0367  0.2060
  309SOL    HW1 1551   2.642   2.716   0.004  0.2693  0.9131 -0.9010
  309SOL    HW2 1552   2.573   2.759   0.145 -0.3204 -1.5364 -0.3988
  310SOL     OW 1553   2.058   2.950   2.220 -0.5520  0.0920 -0.5204
  310SOL    HW1 1554   2.033   3.029   2.277 -1.3521  0.5606 -1.4914
  310SOL    HW2 1555   2.148   2.964   2.180 -0.2185  0.0051  0.1791
  311SOL     OW 1556   4.773   0.269   0.842 -0.2039 -0.1355  0.5692
  311SOL    HW1 1557   4.836   0.319   0.902 -0.4380 -1.2453  1.7742
  311SOL    HW2 1558   4.821   0.191   0.801 -0.8746 -1.2852  1.8879
  312SOL     OW 1559   0.539   3.597   1.622 -0.5858 -0.2341  0.5186
  312SOL    HW1 1560   0.606   3.546   1.676 -0.2570  0.1166  0.4473
  312SOL    HW2 1561   0.459   3.617   1.678  0.7694  2.2771  1.6920
  313SOL     OW 1562   2.659   4.763   1.363  0.3760  0.3164  0.3174
  313SOL    HW1 1563   2.697   4.756   1.271 -1.2000  0.3808 -0.3628
  313SOL    HW2 1564   2.571   4.810   1.360  0.3256  0.3783  1.8673
  314SOL     OW 1565   2.634   2.064   2.595  0.0493  0.1618 -0.8931
  314SOL    HW1 1566   2.623   2.037   2.691 -0.5082  0.2324 -0.9321
  314SOL    HW2 1567   2.711   2.015   2.555  0.3791  0.2403 -0.3677
  315SOL     OW 1568   4.063   0.564   4.300 -0.3856  0.1208  0.0871
  315SOL    HW1 1569   4.064   0.465   4.285  2.5335  0.2236 -1.2147
  315SOL    HW2 1570   4.130   0.588   4.370  0.1242  1.2464 -0.7411
  316SOL     OW 1571   3.936   1.561   3.922 -0.1622  0.3955 -0.5575
  316SOL    HW1 1572   3.973   1.572   4.014  2.1705  1.1526 -1.5002
  316SOL    HW2 1573   3.887   1.644   3.896 -2.9492 -0.6917  0.7781
  317SOL     OW 1574   3.093   0.692   3.645  0.0389 -0.1612 -0.0722
  317SOL    HW1 1575   3.077   0.601   3.607  1.3122 -1.0840  1.4631
  317SOL    HW2 1576   3.121   0.754   3.572  0.1186 -1.2507 -0.9994
  318SOL     OW 1577   0.889   0.397   4.051 -0.1916 -0.6845  0.0963
  318SOL    HW1 1578   0.934   0.387   3.963 -2.7632 -2.1752 -1.1576
  318SOL    HW2 1579   0.807   0.453   4.041 -0.5912 -0.9688  1.5065
  319SOL     OW 1580   2.878   2.677   2.439 -0.1812 -0.1990  0.4316
  319SOL    HW1 1581   2.974   2.679   2.466 -0.7733  1.9369  2.8388
  319SOL    HW2 1582   2.840   2.769   2.442 -1.9571 -0.7347 -2.0996
  320SOL     OW 1583   1.523   4.508   3.286 -0.1960 -0.6504 -0.2507
  320SOL    HW1 1584   1.498   4.540   3.195 -1.4435  0.3339  0.4071
  320SOL    HW2 1585   1.491   4.414   3.298 -1.7915 -0.1293 -0.1719
  321SOL     OW 1586   2.959   0.776   3.881  0.3542 -0.4522  0.0439
  321SOL    HW1 1587   2.992   0.858   3.927  0.1194  0.0629 -0.6865
  321SOL    HW2 1588   3.010   0.763   3.796 -1.0374  0.1548 -0.9252
  322SOL     OW 1589   0.715   4.660   1.185 -0.3416 -0.0072  0.2673
  322SOL    HW1 1590   0.770   4.742   1.205 -1.5778  0.9597 -0.1663
  322SOL    HW2 1591   0.773   4.579   1.192  1.3954  1.0283 -1.1202
  323SOL     OW 1592   1.751   4.636   1.152  0.2454  0.6158  0.1599
  323SOL    HW1 1593   1.725   4.551   1.198  0.4717 -0.1600 -1.1198
  323SOL    HW2 1594   1.670   4.695   1.143 -0.2529 -0.1322 -0.3322
  324SOL     OW 1595   3.487   2.246   4.842 -0.0348  0.4416  0.3327
  324SOL    HW1 1596   3.418   2.241   4.915  0.4455 -1.9872  0.7064
  324SOL    HW2 1597   3.578   2.249   4.884  0.1705  1.8307 -0.1778
  325SOL     OW 1598   2.370   0.217   0.800  0.5573 -0.1169  1.0297
  325SOL    HW1 1599   2.340   0.232   0.894 -2.6563 -0.5530  0.1949
  325SOL    HW2 1600   2.384   0.305   0.754  0.9972  0.0988  1.5743
  326SOL     OW 1601   1.315   1.335   2.427  0.5943  0.2575 -0.1421
  326SOL    HW1 1602   1.277   1.394   2.498  1.6421 -0.6963  1.2593
  326SOL    HW2 1603   1.263   1.250   2.423 -0.9786  1.2190 -2.2294
  327SOL     OW 1604   4.552   0.734   0.162  0.5025  0.2498  0.3594
  327SOL    HW1 1605   4.584   0.697   0.250  0.3750  0.1088  0.3467
  327SOL    HW2 1606   4.575   0.669   0.089 -0.3420 -0.1376  0.4232
  328SOL     OW 1607   1.493   3.699   2.473 -0.4181 -0.2986  0.0189
  328SOL    HW1 1608   1.426   3.760   2.430  1.2610  0.9712 -0.8936
  328SOL    HW2 1609   1.553   3.661   2.404 -0.9762 -2.5236  0.6587
  329SOL     OW 1610   3.822   3.683   4.222 -0.2319  0.5229  0.0730
  329SOL    HW1 1611   3.872   3.769   4.231  1.3020  0.0569 -2.7936
  329SOL    HW2 1612   3.869   3.611   4.271 -0.8663  1.0326  1.4819
  330SOL     OW 1613   2.453   3.797   4.307 -0.1555 -0.7655  0.1803
  330SOL    HW1 1614   2.409   3.714   4.272  0.8831 -0.8239 -1.0622
  330SOL    HW2 1615   2.552   3.785   4.305 -0.0160 -0.2723  2.0015
  331SOL     OW 1616   3.040   4.695   1.247 -0.1024  0.3550  0.2881
  331SOL    HW1 1617   3.094   4.760   1.300  1.3208  0.7458 -1.5649
  331SOL    HW2 1618   2.956   4.739   1.216  0.3271  0.9798 -0.0176
  332SOL     OW 1619   3.484   2.757   4.655  0.2434  0.0910  0.0420
  332SOL    HW1 1620   3.520   2.804   4.736 -0.7527 -1.0395  1.1659
  332SOL    HW2 1621   3.554   2.758   4.583  1.2527  0.8796  0.9887
  333SOL     OW 1622   2.581   1.204   2.209 -0.4113 -0.3272  0.0193
  333SOL    HW1 1623   2.584   1.193   2.109 -0.7606 -0.6386  0.0382
  333SOL    HW2 1624   2.660   1.256   2.240 -1.5534  1.9556 -0.6930
  334SOL     OW 1625   3.314   2.684   1.130  0.2891 -0.2023 -0.1094
  334SOL    HW1 1626   3.238   2.723   1.181  0.5298 -1.4303  1.2711
  334SOL    HW2 1627   3.367   2.757   1.087 -0.8364  0.7540  0.0817
  335SOL     OW 1628   3.317   1.675   3.554 -0.0124 -0.7270 -0.6688
  335SOL    HW1 1629   3.298   1.644   3.461 -0.9235 -1.8514 -0.1320
  335SOL    HW2 1630   3.242   1.648   3.615  0.1782  0.6888  0.2578
  336SOL     OW 1631   2.090   0.869   2.749  0.1563 -0.6345  0.8013
  336SOL    HW1 1632   2.170   0.910   2.793 -1.2115  0.1711  2.7053
  336SOL    HW2 1633   2.077   0.911   2.659  1.7611 -0.6637  0.5317
  337SOL     OW 1634   0.327   2.065   0.044  0.7182 -0.2472 -0.0527
  337SOL    HW1 1635   0.240   2.017   0.031  0.8102 -0.1879 -0.9475
  337SOL    HW2 1636   0.319   2.128   0.121 -0.8760  1.6226 -1.6280
  338SOL     OW 1637   0.764   4.904   1.333  0.0065  0.1675 -0.6432
  338SOL    HW1 1638   0.700   4.917   1.410 -1.2294 -1.4254 -1.3437
  338SOL    HW2 1639   0.857   4.926   1.363 -0.2286 -1.6730  1.7247
  339SOL     OW 1640   3.347   4.614   0.892 -0.2017 -0.3107  0.0147
  339SOL    HW1 1641   3.331   4.613   0.991 -2.1157  0.0540 -0.2475
  339SOL    HW2 1642   3.437   4.652   0.873 -0.3822  1.0216  1.5712
  340SOL     OW 1643   1.682   1.689   3.796 -0.2098 -0.1344 -0.4860
  340SOL    HW1 1644   1.715   1.783   3.799  0.2472 -0.3047  0.8636
  340SOL    HW2 1645   1.608   1.681   3.730  0.7831  0.8166 -1.7640
  341SOL     OW 1646   3.406   1.291   4.190  0.0806  0.0306  0.0400
  341SOL    HW1 1647   3.420   1.298   4.288  1.3870 -0.2010 -0.1079
  341SOL    HW2 1648   3.368   1.377   4.155  0.5073  0.4585  0.6119
  342SOL     OW 1649   0.004   4.784   3.900  0.2896  0.4366 -0.3682
  342SOL    HW1 1650   0.096   4.775   3.863  0.8686  0.5756  0.9717
  342SOL    HW2 1651   0.003   4.856   3.969 -0.8026  0.3499 -0.2761
  343SOL     OW 1652   2.824   2.013   1.893 -0.4355  0.0424  0.0686
  343SOL    HW1 1653   2.827   1.915   1.872  3.7233 -0.9641  3.8462
  343SOL    HW2 1654   2.753   2.031   1.961 -0.3896 -0.6213  0.2947
  344SOL     OW 1655   0.880   3.590   4.749 -0.1862  0.1770  0.0441
  344SOL    HW1 1656   0.784   3.564   4.756 -0.1567 -0.2695 -0.9235
  344SOL    HW2 1657   0.937   3.510   4.768 -0.0523  0.0368 -0.8664
  345SOL     OW 1658   1.888   3.760   4.528  0.3640 -0.1104  0.1064
  345SOL    HW1 1659   1.957   3.697   4.494  0.1031 -0.7217  0.6778
  345SOL    HW2 1660   1.916   3.854   4.509  2.0379 -0.2741  1.5318
  346SOL     OW 1661   0.231   1.715   2.896 -0.0976 -0.1824  0.2758
  346SOL    HW1 1662   0.293   1.735   2.973  0.0948 -1.4646  0.4683
  346SOL    HW2 1663   0.220   1.617   2.887  2.1541 -0.2681 -3.1523
  347SOL     OW 1664   0.753   4.392   3.371 -0.1827 -0.1814 -0.6408
  347SOL    HW1 1665   0.754   4.298   3.339 -0.1512 -0.1745 -0.6602
  347SOL    HW2 1666   0.665   4.412   3.414  0.2210 -0.5643  0.3852
  348SOL     OW 1667   1.087   1.480   1.776  0.4844  0.7188 -0.3212
  348SOL    HW1 1668   1.044   1.424   1.706  1.1869  0.0603 -0.2358
  348SOL    HW2 1669   1.023   1.551   1.806  0.1519  0.9464 -1.5475
  349SOL     OW 1670   1.185   2.627   0.420 -0.1949 -0.5232  0.4932
  349SOL    HW1 1671   1.189   2.527   0.423  1.0284 -0.5080 -0.1289
  349SOL    HW2 1672   1.272   2.665   0.451 -0.3084  0.3229 -0.1912
  350SOL     OW 1673   0.524   0.917   1.989  0.4189 -0.3796  0.3791
  350SOL    HW1 1674   0.445   0.901   1.930 -0.2488  1.3684  0.7441
  350SOL    HW2 1675   0.585   0.838   1.984 -0.9293 -1.4255 -0.5473
  351SOL     OW 1676   3.622   3.416   4.825 -0.2905  0.1824 -0.2769
  351SOL    HW1 1677   3.531   3.384   4.851  0.3763  0.1927  2.2769
  351SOL    HW2 1678   3.676   3.435   4.907  1.6968  1.1565 -1.7244
  352SOL     OW 1679   4.870   2.958   2.332 -0.2390  0.0145  0.0948
  352SOL    HW1 1680   4.937   2.953   2.406 -0.5098 -1.7228  0.2585
  352SOL    HW2 1681   4.882   3.043   2.281  1.4390  0.1778  0.7288
  353SOL     OW 1682   3.500   4.643   2.529 -0.1878 -0.3556  0.2436
  353SOL    HW1 1683   3.492   4.593   2.616 -1.5927 -1.8500 -0.6765
  353SOL    HW2 1684   3.517   4.578   2.455 -0.1704  0.7599 -0.7649
  354SOL     OW 1685   0.212   3.550   0.452 -0.2581  0.2590  0.3828
  354SOL    HW1 1686   0.150   3.598   0.389  0.9016 -0.1842 -1.1621
  354SOL    HW2 1687   0.289   3.513   0.400  0.1713 -1.0923  1.9255
  355SOL     OW 1688   1.106   2.559   3.870  0.0222 -0.4815  0.0212
  355SOL    HW1 1689   1.205   2.571   3.869  0.0492 -0.6699 -1.3843
  355SOL    HW2 1690   1.065   2.626   3.932  0.9742 -0.0046  0.1561
  356SOL     OW 1691   3.852   0.034   3.332  0.0232  0.2532 -0.2375
  356SOL    HW1 1692   3.757   0.032   3.300  0.0484  0.6693 -0.3432
  356SOL    HW2 1693   3.887  -0.059   3.337 -0.9726 -0.0682  1.5489
  357SOL     OW 1694   1.905   1.662   2.600 -0.3155 -0.0457  0.2472
  357SOL    HW1 1695   1.970   1.734   2.626  1.1916 -1.5575  0.9258
  357SOL    HW2 1696   1.948   1.602   2.532 -0.9498 -1.1367  0.7834
  358SOL     OW 1697   2.971   4.310   0.980 -0.1983 -0.1860 -0.2245
  358SOL    HW1 1698   2.885   4.265   1.004 -0.6681  0.8107  0.0684
  358SOL    HW2 1699   3.046   4.267   1.030 -0.6419 -0.5623  0.1343
  359SOL     OW 1700   0.144   2.512   4.075  0.3014 -0.5256 -0.1416
  359SOL    HW1 1701   0.063   2.499   4.133  1.6595 -1.4203  1.6571
  359SOL    HW2 1702   0.170   2.608   4.075 -0.4503 -0.3174 -0.2988
  360SOL     OW 1703   4.370   4.461   0.050 -0.1549 -0.4260  0.6748
  360SOL    HW1 1704   4.304   4.448  -0.024  0.1681  1.5163 -0.0323
  360SOL    HW2 1705   4.376   4.559   0.072  1.6809 -0.6645  1.4574
  361SOL     OW 1706   4.037   4.526   4.555  0.4016 -0.0527 -0.2152
  361SOL    HW1 1707   3.964   4.579   4.511  2.8214  2.9513 -0.9714
  361SOL    HW2 1708   4.068   4.454   4.492  0.6601  1.1676 -1.5373
  362SOL     OW 1709   3.886   2.905   3.532 -0.1844 -0.7431 -0.1868
  362SOL    HW1 1710   3.823   2.847   3.481 -0.4256 -0.5253 -0.1375
  362SOL    HW2 1711   3.854   2.914   3.626  0.6122 -1.6853  0.1966
  363SOL     OW 1712   2.503   1.031   2.452 -0.4853 -0.1012 -0.2504
  363SOL    HW1 1713   2.580   1.046   2.513 -1.6603  0.8911  1.0523
  363SOL    HW2 1714   2.514   1.087   2.370  0.0193  0.2993  0.0856
  364SOL     OW 1715   3.107   0.434   2.899 -0.0743 -0.2481 -0.7101
  364SOL    HW1 1716   3.029   0.390   2.855  0.1808 -1.9999  0.5257
  364SOL    HW2 1717   3.093   0.439   2.997  1.4466 -0.8238 -0.4278
  365SOL     OW 1718   1.560   0.667   2.491 -0.1328  0.5788  0.4742
  365SOL    HW1 1719   1.581   0.734   2.420  2.4904 -0.5183  0.1189
  365SOL    HW2 1720   1.621   0.680   2.568 -0.9109 -0.1992  1.2393
  366SOL     OW 1721   1.320   3.575   0.400 -0.2770  0.5478 -0.0308
  366SOL    HW1 1722   1.322   3.618   0.490 -1.7738  0.4392  0.0867
  366SOL    HW2 1723   1.295   3.644   0.331 -0.5590  0.3345 -0.1453
  367SOL     OW 1724   4.416   1.914   0.572 -0.6217  0.2684  0.1171
  367SOL    HW1 1725   4.358   1.903   0.653  0.9081  1.9660  1.5527
  367SOL    HW2 1726   4.498   1.857   0.582 -1.1977 -0.7889 -1.0581
  368SOL     OW 1727   4.705   3.201   1.211  0.3698 -0.0323  0.2138
  368SOL    HW1 1728   4.660   3.267   1.151  0.3821 -0.5748 -0.4035
  368SOL    HW2 1729   4.781   3.246   1.259 -0.0217  0.5582  0.2835
  369SOL     OW 1730   1.309   1.832   3.226 -0.1650  0.1403  0.0055
  369SOL    HW1 1731   1.341   1.908   3.169  0.3316 -1.1803 -1.5569
  369SOL    HW2 1732   1.255   1.768   3.170 -0.3212 -0.8268  1.2049
  370SOL     OW 1733   4.137   4.490   1.274 -0.0507 -0.3313 -0.4002
  370SOL    HW1 1734   4.235   4.509   1.270 -0.4374  2.6554  1.1031
  370SOL    HW2 1735   4.109   4.441   1.191  2.8268 -2.3065 -0.3345
  371SOL     OW 1736   1.541   2.263   3.119  0.1525  0.3057  0.2015
  371SOL    HW1 1737   1.486   2.347   3.118 -1.3406 -0.6277  0.2419
  371SOL    HW2 1738   1.570   2.242   3.026 -1.5691 -0.4205 -0.2043
  372SOL     OW 1739   1.331   2.608   2.315 -0.6358 -0.2300  0.2230
  372SOL    HW1 1740   1.238   2.575   2.329 -0.8317 -0.4288 -1.3475
  372SOL    HW2 1741   1.332   2.708   2.317 -0.8457 -0.2336  0.4616
  373SOL     OW 1742   2.482   3.030   0.331 -0.1468  0.2286 -0.4103
  373SOL    HW1 1743   2.561   3.064   0.280 -0.5192  2.0564  0.1492
  373SOL    HW2 1744   2.417   3.105   0.345 -2.0075 -1.2205 -0.8705
  374SOL     OW 1745   4.777   0.068   4.665  0.1406  0.0922 -0.5682
  374SOL    HW1 1746   4.713   0.092   4.738 -0.4821 -0.3368 -0.9558
  374SOL    HW2 1747   4.780   0.141   4.597  1.7712  1.1251  0.5475
  375SOL     OW 1748   2.771   3.853   3.570  0.1938 -0.1467  0.1355
  375SOL    HW1 1749   2.704   3.788   3.534 -0.1218 -0.0760  0.5960
  375SOL    HW2 1750   2.862   3.811   3.566 -0.0984 -0.9465  1.1591
  376SOL     OW 1751   4.043   4.374   1.035  0.4055  0.2824 -0.0194
  376SOL    HW1 1752   3.948   4.398   1.013  0.3513  0.1474  0.0705
  376SOL    HW2 1753   4.056   4.275   1.024  1.1275  0.5712 -2.3238
  377SOL     OW 1754   3.207   4.549   4.198  0.3173 -0.6536  0.1387
  377SOL    HW1 1755   3.158   4.606   4.263 -1.6259 -2.5826  0.4753
  377SOL    HW2 1756   3.230   4.603   4.117 -0.4171  0.8616  0.8985
  378SOL     OW 1757   2.189   2.075   0.730 -0.0335 -0.3263  0.4325
  378SOL    HW1 1758   2.179   2.149   0.663  2.8848 -1.5950 -1.6423
  378SOL    HW2 1759   2.266   2.095   0.790  0.3829 -1.3407  0.2560
  379SOL     OW 1760   1.478   0.524   1.292 -0.0075 -0.1326  0.0476
  379SOL    HW1 1761   1.426   0.531   1.377 -0.7135 -1.3463 -0.2523
  379SOL    HW2 1762   1.486   0.614   1.249  0.0012  0.4223  1.1824
  380SOL     OW 1763   1.443   4.474   3.617 -0.3183 -0.7124 -0.3442
  380SOL    HW1 1764   1.459   4.378   3.642  0.3792 -0.2674  1.0056
  380SOL    HW2 1765   1.515   4.504   3.554  0.0861 -0.7766  0.0809
  381SOL     OW 1766   0.941   3.088   2.909 -0.2072 -0.1420  0.0695
  381SOL    HW1 1767   0.993   3.117   2.828 -0.1134 -0.1354  0.1315
  381SOL    HW2 1768   0.871   3.022   2.882  0.8416 -1.3366  0.1963
  382SOL     OW 1769   0.882   1.319   4.240  0.5637 -0.9235  0.1028
  382SOL    HW1 1770   0.844   1.238   4.285 -1.2489  1.3241  3.0028
  382SOL    HW2 1771   0.817   1.353   4.172 -0.9734  0.5423  2.1363
  383SOL     OW 1772   4.162   4.814   3.491 -0.0376  0.2539 -1.0219
  383SOL    HW1 1773   4.186   4.900   3.447 -0.6132  0.0526 -1.7500
  383SOL    HW2 1774   4.107   4.759   3.428 -1.5153  0.2699  0.2023
  384SOL     OW 1775   1.567   3.077   1.649  0.2526 -0.3810 -0.3330
  384SOL    HW1 1776   1.480   3.073   1.602  0.0382 -0.3718  0.0583
  384SOL    HW2 1777   1.634   3.020   1.601 -0.4403 -1.8285  0.3576
  385SOL     OW 1778   4.802   3.358   4.871 -0.0324  0.5161  0.1655
  385SOL    HW1 1779   4.708   3.392   4.873 -0.4891 -0.6693  0.0839
  385SOL    HW2 1780   4.826   3.332   4.778  0.0412 -0.0359  0.3324
  386SOL     OW 1781   0.163   0.567   3.206  0.1056 -0.3647  0.1371
  386SOL    HW1 1782   0.247   0.587   3.157 -0.0306  0.7729  0.3325
  386SOL    HW2 1783   0.092   0.632   3.178 -0.2336 -0.2688  1.1488
  387SOL     OW 1784   1.584   0.696   2.082  0.0635  0.5207 -0.5190
  387SOL    HW1 1785   1.619   0.742   2.001 -0.4474  0.4213 -0.8008
  387SOL    HW2 1786   1.614   0.601   2.082 -0.3948  0.3704 -0.8859
  388SOL     OW 1787   0.182   4.501   1.084 -0.4389 -0.1389 -0.0281
  388SOL    HW1 1788   0.212   4.581   1.033  3.0204 -0.4779  1.2452
  388SOL    HW2 1789   0.205   4.512   1.181 -2.1994 -1.6633  0.6461
  389SOL     OW 1790   0.164   3.605   1.373 -0.0317 -0.9839 -0.1613
  389SOL    HW1 1791   0.187   3.508   1.376 -0.7444 -1.1479  0.2363
  389SOL    HW2 1792   0.247   3.659   1.381  0.4045 -1.5596 -0.6592
  390SOL     OW 1793   0.945   1.023   4.073  0.1422 -0.1340 -0.1844
  390SOL    HW1 1794   0.888   1.047   4.152  0.9034  0.4296  0.2054
  390SOL    HW2 1795   0.902   0.948   4.022  0.0252 -1.0580  1.2146
  391SOL     OW 1796   2.687   2.804   4.615 -0.4385  0.5302  0.3268
  391SOL    HW1 1797   2.668   2.752   4.698 -2.6799  1.8686  0.7326
  391SOL    HW2 1798   2.730   2.744   4.547 -1.2726 -1.3709  1.3928
  392SOL     OW 1799   1.593   0.977   3.007  0.3363 -0.8836 -0.2263
  392SOL    HW1 1800   1.665   0.971   2.939  0.9005  1.1953  0.1263
  392SOL    HW2 1801   1.631   1.008   3.094 -0.8300 -0.6185  0.2191
  393SOL     OW 1802   2.714   1.492   2.116  0.6451 -0.2543 -0.3182
  393SOL    HW1 1803   2.667   1.485   2.028  0.2104  0.8027 -0.1903
  393SOL    HW2 1804   2.694   1.582   2.157 -0.6476 -1.3853  1.7068
  394SOL     OW 1805   0.251   1.436   2.237 -0.0522  0.4760  0.2917
  394SOL    HW1 1806   0.311   1.366   2.198 -1.0719  0.4276 -1.3035
  394SOL    HW2 1807   0.203   1.398   2.317 -0.9514 -0.8675 -0.8274
  395SOL     OW 1808   0.740   3.809   3.916  0.1426  0.0800 -0.0766
  395SOL    HW1 1809   0.789   3.804   4.004  0.8781  0.3941 -0.4601
  395SOL    HW2 1810   0.656   3.755   3.922  0.7892 -0.8960  0.4359
  396SOL     OW 1811   0.668   0.540   4.012 -0.2039  0.1268  0.1699
  396SOL    HW1 1812   0.621   0.474   4.072 -0.2289 -1.3804 -1.4268
  396SOL    HW2 1813   0.602   0.579   3.948  0.5395 -1.7553 -1.8717
  397SOL     OW 1814   0.895   1.299   2.032 -0.1498 -0.3271 -0.2735
  397SOL    HW1 1815   0.899   1.232   1.958  0.9675  1.5378 -1.9878
  397SOL    HW2 1816   0.803   1.340   2.035  0.1688  0.5561 -1.5948
  398SOL     OW 1817   3.022   1.074   3.486  0.1022  0.2581 -0.4496
  398SOL    HW1 1818   2.971   1.159   3.475 -0.7955 -0.3078 -0.7663
  398SOL    HW2 1819   2.975   1.015   3.551  1.4655  0.5528  0.8713
  399SOL     OW 1820   4.466   0.591   0.821  0.3176  0.6734  0.0371
  399SOL    HW1 1821   4.463   0.491   0.832 -0.9609  0.6594 -0.3318
  399SOL    HW2 1822   4.383   0.631   0.860  0.8855  1.6143  0.2973
  400SOL     OW 1823   2.611   3.663   0.284  0.9827  0.1048 -0.1154
  400SOL    HW1 1824   2.664   3.583   0.257  2.1325  0.7197  0.2754
  400SOL    HW2 1825   2.584   3.655   0.380  2.1616  0.7289  0.2891
  401SOL     OW 1826   1.333   4.350   1.064  0.0590 -0.6506  0.0244
  401SOL    HW1 1827   1.285   4.341   0.976  0.9154 -0.8545 -0.4315
  401SOL    HW2 1828   1.306   4.275   1.124 -1.5318  0.2073  0.4352
  402SOL     OW 1829   3.794   3.891   3.796 -0.4783 -0.5458 -0.0066
  402SOL    HW1 1830   3.757   3.957   3.862  0.9273 -0.5195  0.7870
  402SOL    HW2 1831   3.830   3.941   3.717 -0.4120 -0.4402  0.0895
  403SOL     OW 1832   3.214   3.962   1.526 -0.1436  0.2832 -0.7122
  403SOL    HW1 1833   3.185   3.972   1.622  0.1120  2.3953 -0.7974
  403SOL    HW2 1834   3.161   3.889   1.483 -1.3388  0.2817  0.6446
  404SOL     OW 1835   1.760   3.898   1.386 -0.0166  0.0696 -0.3947
  404SOL    HW1 1836   1.787   3.804   1.368  0.2955  0.2617 -0.9573
  404SOL    HW2 1837   1.814   3.934   1.462 -1.6381 -0.8841  1.2919
  405SOL     OW 1838   1.982   4.415   4.512  0.7680 -0.0738 -0.3419
  405SOL    HW1 1839   1.916   4.426   4.438  0.7198 -0.3714 -0.3428
  405SOL    HW2 1840   2.056   4.481   4.501  0.0764  0.8008  0.0854
  406SOL     OW 1841   4.737   1.339   0.378  0.3769  0.1444  0.3868
  406SOL    HW1 1842   4.778   1.383   0.298 -1.6469 -1.5363 -1.7035
  406SOL    HW2 1843   4.803   1.341   0.454  2.7437  0.9866 -1.5361
  407SOL     OW 1844   1.372   0.814   3.985  0.5980 -0.1514 -0.0024
  407SOL    HW1 1845   1.453   0.810   4.043  0.2762 -0.2959  0.4504
  407SOL    HW2 1846   1.304   0.749   4.020  0.6009 -0.6303 -0.8649
  408SOL     OW 1847   2.286   3.081   2.982 -0.9924 -0.7295  0.4034
  408SOL    HW1 1848   2.219   3.110   3.049 -1.8482 -1.3871 -0.1478
  408SOL    HW2 1849   2.328   2.995   3.011  0.3980  0.2099  1.2633
  409SOL     OW 1850   2.367   2.503   3.162 -0.0915 -0.0251 -0.8306
  409SOL    HW1 1851   2.461   2.494   3.194 -0.4355 -0.1641  0.1599
  409SOL    HW2 1852   2.367   2.534   3.067  0.9378  2.8334 -0.0044
  410SOL     OW 1853   3.351   0.961   0.474  0.1043  0.3976  0.0646
  410SOL    HW1 1854   3.267   0.907   0.484  0.9969 -1.0556 -0.1294
  410SOL    HW2 1855   3.397   0.967   0.563  0.2111  0.5181  0.0011
  411SOL     OW 1856   1.859   4.072   1.773 -0.4490 -0.0318 -0.3764
  411SOL    HW1 1857   1.921   4.139   1.732  0.0016 -1.6945 -2.5973
  411SOL    HW2 1858   1.765   4.090   1.744 -0.3927 -0.1003 -0.5994
  412SOL     OW 1859   2.330   3.988   2.679  0.2766  0.2090  0.1049
  412SOL    HW1 1860   2.260   3.918   2.672  0.1305  0.5046 -1.6097
  412SOL    HW2 1861   2.416   3.946   2.709 -0.2080 -0.4177  0.6436
  413SOL     OW 1862   0.933   4.261   3.612  0.5609 -0.2013  0.6869
  413SOL    HW1 1863   1.007   4.194   3.616  0.2226 -0.5254  1.8165
  413SOL    HW2 1864   0.895   4.274   3.703 -0.3636  0.4334  0.2243
  414SOL     OW 1865   0.619   3.262   2.258  0.2324  0.0158  0.5064
  414SOL    HW1 1866   0.584   3.172   2.231  0.8940 -0.1943  0.3252
  414SOL    HW2 1867   0.640   3.315   2.176  1.4748 -0.3149  0.5981
  415SOL     OW 1868   3.289   2.202   2.481 -0.3340 -0.8170 -0.0610
  415SOL    HW1 1869   3.356   2.179   2.551 -1.6732 -1.7622  0.9538
  415SOL    HW2 1870   3.243   2.119   2.450  0.1214 -0.4069 -1.9896
  416SOL     OW 1871   3.190   3.673   2.014 -0.1058 -0.6192  0.3980
  416SOL    HW1 1872   3.252   3.690   1.938  2.5006  0.3955  2.6025
  416SOL    HW2 1873   3.109   3.732   2.004  2.2586  2.9361  0.6050
  417SOL     OW 1874   1.550   1.039   3.711 -0.0449  0.7131 -0.0168
  417SOL    HW1 1875   1.463   1.054   3.665 -0.6405  1.3717  1.2937
  417SOL    HW2 1876   1.585   1.125   3.746  1.2438  0.4880 -0.6625
  418SOL     OW 1877   0.339   1.932   2.456 -0.7854 -0.3264 -0.1365
  418SOL    HW1 1878   0.253   1.891   2.427 -0.6271  0.0680 -1.2108
  418SOL    HW2 1879   0.341   1.940   2.556 -1.6967 -0.9659 -0.0633
  419SOL     OW 1880   0.002   3.698   1.956 -1.0236 -0.0116 -0.0352
  419SOL    HW1 1881  -0.043   3.787   1.945 -2.4683 -0.9292 -2.3538
  419SOL    HW2 1882   0.052   3.676   1.872 -2.0090 -2.0488 -0.1468
  420SOL     OW 1883   3.502   1.984   0.665 -0.1648 -0.2047  0.0682
  420SOL    HW1 1884   3.498   1.884   0.666 -2.3360 -0.1853 -0.8652
  420SOL    HW2 1885   3.467   2.020   0.751 -0.5285 -0.2356 -0.0674
  421SOL     OW 1886   4.676   3.797   4.222  0.1062  0.4454  0.2741
  421SOL    HW1 1887   4.636   3.714   4.183 -1.2313  1.0123  0.3743
  421SOL    HW2 1888   4.693   3.783   4.319  0.8257 -0.0347  0.0877
  422SOL     OW 1889   4.664   0.438   2.874 -0.8369 -0.0613 -0.5088
  422SOL    HW1 1890   4.593   0.393   2.927 -1.3053  0.3050 -0.8155
  422SOL    HW2 1891   4.628   0.461   2.783 -0.3854  0.2954 -0.5996
  423SOL     OW 1892   2.148   1.572   4.896 -0.6313  0.4395 -0.7796
  423SOL    HW1 1893   2.232   1.578   4.842 -0.3102 -0.3122 -0.3798
  423SOL    HW2 1894   2.087   1.647   4.872 -0.2103  0.4928 -1.7054
  424SOL     OW 1895   0.310   2.464   3.835  0.2997  0.0578 -0.3285
  424SOL    HW1 1896   0.259   2.492   3.916  0.1562 -1.1920  0.0324
  424SOL    HW2 1897   0.408   2.483   3.849  0.0652  1.7320 -0.7127
  425SOL     OW 1898   0.884   3.435   0.609 -0.2367 -0.1959 -0.7849
  425SOL    HW1 1899   0.898   3.490   0.526  0.2749  0.7531 -0.0812
  425SOL    HW2 1900   0.791   3.398   0.608 -0.8077  1.1951 -0.9892
  426SOL     OW 1901   0.545   2.898   1.884  0.4146  0.0581 -0.1764
  426SOL    HW1 1902   0.446   2.911   1.887  0.6825  2.4597  0.3250
  426SOL    HW2 1903   0.567   2.829   1.816 -1.5941 -0.3756 -0.4512
  427SOL     OW 1904   1.981   4.323   1.714  0.3240 -0.2239  0.4647
  427SOL    HW1 1905   2.073   4.362   1.717  0.0520  0.4070  1.1585
  427SOL    HW2 1906   1.932   4.349   1.797  0.1445 -2.1220  0.9994
  428SOL     OW 1907   0.711   2.767   3.826  0.3857 -0.5022  0.3092
  428SOL    HW1 1908   0.659   2.852   3.825 -0.3268 -0.9326 -0.3324
  428SOL    HW2 1909   0.766   2.761   3.743  0.6498 -0.5372  0.4869
  429SOL     OW 1910   4.211   1.731   1.674 -0.2967 -0.3488  0.9313
  429SOL    HW1 1911   4.305   1.730   1.708  0.2298  1.5634 -0.3203
  429SOL    HW2 1912   4.199   1.806   1.609 -1.9572 -2.1644 -1.0654
  430SOL     OW 1913   2.996   4.525   1.947 -0.4350 -0.3661  0.2831
  430SOL    HW1 1914   3.011   4.429   1.968  1.1965 -0.2972 -0.4116
  430SOL    HW2 1915   2.941   4.567   2.019  0.1568 -1.4502  1.4038
  431SOL     OW 1916   2.193   4.597   2.001  0.1735 -0.0201  0.1463
  431SOL    HW1 1917   2.195   4.570   2.097  0.1518  2.2727  0.8402
  431SOL    HW2 1918   2.245   4.681   1.989  0.1066 -0.2193 -1.8588
  432SOL     OW 1919   4.188   0.722   4.087 -0.4661  0.0837  0.6571
  432SOL    HW1 1920   4.128   0.676   4.152 -2.1371  0.6320 -0.4516
  432SOL    HW2 1921   4.247   0.786   4.137 -0.9825 -0.2515  1.7336
  433SOL     OW 1922   1.878   1.410   0.993  0.4350 -0.3427  0.2016
  433SOL    HW1 1923   1.917   1.320   1.013  5.1432  1.6939  1.4255
  433SOL    HW2 1924   1.835   1.447   1.075 -0.5101 -0.9301 -0.0031
  434SOL     OW 1925   3.281   0.551   3.786 -0.4151 -0.7507 -0.2899
  434SOL    HW1 1926   3.217   0.611   3.739 -1.1816  0.3929  2.0454
  434SOL    HW2 1927   3.233   0.468   3.816 -0.0046 -1.3305 -1.1795
  435SOL     OW 1928   0.250   4.322   1.652 -0.4718  0.4911  0.0185
  435SOL    HW1 1929   0.274   4.238   1.701  0.1700  0.7224  0.1063
  435SOL    HW2 1930   0.313   4.335   1.576 -0.2339  1.1793  0.3264
  436SOL     OW 1931   3.090   1.823   2.050  0.4469 -0.0455 -0.6844
  436SOL    HW1 1932   3.087   1.726   2.027 -1.7170  0.3930 -2.6083
  436SOL    HW2 1933   3.012   1.847   2.108  0.3135  0.7391 -1.1641
  437SOL     OW 1934   4.630   1.091   3.982 -0.1934 -0.0510 -0.0205
  437SOL    HW1 1935   4.673   1.008   4.017  0.2932  0.2145  0.0251
  437SOL    HW2 1936   4.547   1.067   3.932  0.2292 -0.6150 -0.4663
  438SOL     OW 1937   2.900   2.463   3.306  0.4344 -0.4937  0.2959
  438SOL    HW1 1938   2.904   2.395   3.232 -2.2158 -1.2224  0.6772
  438SOL    HW2 1939   2.930   2.420   3.391  0.4418 -0.6513  0.2153
  439SOL     OW 1940   1.417   4.169   0.709  0.5459 -0.2343 -0.2042
  439SOL    HW1 1941   1.394   4.099   0.777  0.3786  0.5383  0.5513
  439SOL    HW2 1942   1.339   4.183   0.648  0.3138 -0.1858  0.1006
  440SOL     OW 1943   3.765   2.175   3.908  0.1087  0.1570  0.5101
  440SOL    HW1 1944   3.737   2.271   3.899 -2.9366 -0.7710 -1.1890
  440SOL    HW2 1945   3.685   2.116   3.905  1.9141 -2.5183  1.3206
  441SOL     OW 1946   4.841   4.368   1.172 -0.5260  0.0902 -0.0453
  441SOL    HW1 1947   4.850   4.269   1.163  2.4568 -0.1723  3.4340
  441SOL    HW2 1948   4.925   4.412   1.139 -1.8146  1.5144 -1.5534
  442SOL     OW 1949   1.015   0.655   0.665 -0.4889 -0.1133  0.4975
  442SOL    HW1 1950   1.031   0.618   0.573 -1.1714 -0.5414  0.5476
  442SOL    HW2 1951   0.967   0.742   0.657 -0.0724  0.1146  0.4332
  443SOL     OW 1952   3.919   2.283   4.687 -0.3344  0.2208  0.0443
  443SOL    HW1 1953   3.902   2.193   4.649  0.7085  0.0292 -0.0090
  443SOL    HW2 1954   4.018   2.297   4.698 -0.4947  1.2014  0.4181
  444SOL     OW 1955   0.028   4.803   1.270 -0.7716 -0.2085 -0.3879
  444SOL    HW1 1956   0.113   4.755   1.248 -0.5504 -1.0890  2.0479
  444SOL    HW2 1957   0.036   4.899   1.244  1.4212 -0.0284  0.7415
  445SOL     OW 1958   1.663   3.028   4.468  0.4315  0.2159 -0.1664
  445SOL    HW1 1959   1.619   3.108   4.428  1.0280  0.7734  0.2719
  445SOL    HW2 1960   1.722   3.057   4.544  1.1094 -0.5789 -0.3799
  446SOL     OW 1961   1.532   3.558   1.297  0.1411  0.2032 -0.0422
  446SOL    HW1 1962   1.542   3.471   1.345 -0.8112 -1.7420 -3.1184
  446SOL    HW2 1963   1.622   3.601   1.288  1.2752 -2.2687 -1.4987
  447SOL     OW 1964   1.389   1.136   2.921 -1.3732 -0.4071 -0.4703
  447SOL    HW1 1965   1.363   1.090   2.836 -1.4987 -1.2875  0.0266
  447SOL    HW2 1966   1.458   1.081   2.968 -0.8339  0.3944 -0.3049
  448SOL     OW 1967   1.710   1.905   2.200  0.3062  0.4070  0.4690
  448SOL    HW1 1968   1.793   1.910   2.256  1.0236 -0.2361 -0.4956
  448SOL    HW2 1969   1.669   1.814   2.209 -0.2427  0.6839  0.8478
  449SOL     OW 1970   0.419   2.393   3.216  0.3685 -0.7416  0.3679
  449SOL    HW1 1971   0.490   2.379   3.286  1.6965 -0.3499 -0.8546
  449SOL    HW2 1972   0.457   2.448   3.142 -1.1224 -0.8652 -0.5095
  450SOL     OW 1973   3.524   3.990   4.323 -0.0278 -0.1871 -0.1059
  450SOL    HW1 1974   3.602   4.050   4.305  0.2141 -0.9627 -1.8829
  450SOL    HW2 1975   3.540   3.901   4.279 -0.1046 -1.8262  2.9213
  451SOL     OW 1976   0.519   1.235   2.359  0.4215 -0.4631 -0.5152
  451SOL    HW1 1977   0.592   1.166   2.357 -0.0935 -1.0256 -0.4881
  451SOL    HW2 1978   0.438   1.195   2.404  0.1617  0.2109 -0.3777
  452SOL     OW 1979   0.113   1.423   0.258  0.1676  0.0123  0.2705
  452SOL    HW1 1980   0.148   1.473   0.336  0.2430  0.4567 -0.0429
  452SOL    HW2 1981   0.160   1.335   0.250 -0.3793 -0.3687  1.1662
  453SOL     OW 1982   2.477   4.226   4.436  0.5306 -0.0287 -0.2565
  453SOL    HW1 1983   2.414   4.231   4.513 -0.6211 -1.8969 -1.0214
  453SOL    HW2 1984   2.549   4.294   4.448 -0.3355  0.6061  1.7936
  454SOL     OW 1985   0.462   1.054   3.757  0.0638  0.2887 -0.1762
  454SOL    HW1 1986   0.451   1.078   3.661  0.0168  2.0994  0.2504
  454SOL    HW2 1987   0.556   1.072   3.785  0.3362 -1.1541 -0.1054
  455SOL     OW 1988   1.314   4.033   3.213 -0.2655  0.0307 -0.3402
  455SOL    HW1 1989   1.367   3.951   3.191 -0.6136 -0.2176 -0.2596
  455SOL    HW2 1990   1.225   4.007   3.250 -0.4875  0.4431 -0.5675
  456SOL     OW 1991   0.199   0.747   0.591  0.0122 -0.0176  0.4865
  456SOL    HW1 1992   0.181   0.650   0.608  1.1984 -0.8147 -2.2819
  456SOL    HW2 1993   0.114   0.798   0.595 -1.8277 -2.2470 -4.0404
  457SOL     OW 1994   0.580   1.960   2.678 -0.0953  0.1084  0.1545
  457SOL    HW1 1995   0.630   2.021   2.616  0.5221  1.4753  1.8951
  457SOL    HW2 1996   0.484   1.989   2.682 -0.2698 -0.3405 -0.5598
  458SOL     OW 1997   0.570   3.656   0.498 -0.6190 -0.7755 -0.0918
  458SOL    HW1 1998   0.557   3.748   0.462 -1.8360 -0.8837  0.0238
  458SOL    HW2 1999   0.600   3.662   0.593 -0.6448 -0.5006 -0.0991
  459SOL     OW 2000   1.687   3.235   1.872  0.5036  0.2347  0.3731
  459SOL    HW1 2001   1.644   3.199   1.789  0.7929  0.7181  0.0085
  459SOL    HW2 2002   1.757   3.172   1.904  0.9236  0.4000 -0.1931
  460SOL     OW 2003   2.202   1.772   2.916 -0.1753  0.7147  0.2962
  460SOL    HW1 2004   2.254   1.687   2.923 -0.2011  0.8108  2.7921
  460SOL    HW2 2005   2.172   1.786   2.822 -3.3955 -4.0156  0.2650
  461SOL     OW 2006   3.695   4.393   2.146  0.4004 -0.5454 -0.9648
  461SOL    HW1 2007   3.771   4.370   2.206 -0.3271  0.7364  0.5066
  461SOL    HW2 2008   3.649   4.309   2.118  0.6213 -1.1738  0.4632
  462SOL     OW 2009   0.013   3.237   3.572  0.3091  0.4309  0.3807
  462SOL    HW1 2010  -0.027   3.321   3.609  0.7529  0.8297 -0.0318
  462SOL    HW2 2011  -0.042   3.204   3.496  0.6723  0.8970 -0.0908
  463SOL     OW 2012   0.999   2.792   2.392  0.7021  0.0023 -0.0144
  463SOL    HW1 2013   1.024   2.700   2.421  0.5080  0.1682  0.6835
  463SOL    HW2 2014   0.950   2.838   2.466 -0.5027  0.1464 -0.8685
  464SOL     OW 2015   2.388   0.705   0.909 -0.5177  0.3160  0.1856
  464SOL    HW1 2016   2.439   0.789   0.893 -1.0609  0.7391  0.6664
  464SOL    HW2 2017   2.341   0.679   0.825  1.5334 -0.8266 -0.6960
  465SOL     OW 2018   0.334   4.117   0.251  0.6723 -0.0652 -0.3330
  465SOL    HW1 2019   0.319   4.118   0.350  1.0040 -0.5803 -0.2751
  465SOL    HW2 2020   0.277   4.046   0.209 -0.1464  0.7465 -0.6294
  466SOL     OW 2021   1.499   2.952   4.095 -0.9537 -0.0399  0.0602
  466SOL    HW1 2022   1.469   3.046   4.110  0.2564  0.6039 -1.2151
  466SOL    HW2 2023   1.571   2.929   4.161 -1.4288 -0.1720  0.5371
  467SOL     OW 2024   0.855   4.499   2.902 -0.2225  0.6882 -0.1146
  467SOL    HW1 2025   0.841   4.534   2.995 -1.1477  1.7506 -0.6424
  467SOL    HW2 2026   0.806   4.556   2.837 -0.7194 -0.8379 -1.1393
  468SOL     OW 2027   1.655   2.648   1.584 -0.2696 -0.1824 -0.2947
  468SOL    HW1 2028   1.709   2.568   1.560 -1.0132 -0.5804 -0.6897
  468SOL    HW2 2029   1.624   2.640   1.679  0.5481  0.1620  0.0086
  469SOL     OW 2030   3.814   3.480   1.635  0.2451  0.0458 -0.1140
  469SOL    HW1 2031   3.803   3.481   1.535 -0.9065 -0.0825  0.0048
  469SOL    HW2 2032   3.818   3.574   1.669  0.3310  0.0903 -0.2452
  470SOL     OW 2033   1.300   4.627   2.506  0.2418  0.2130 -0.4588
  470SOL    HW1 2034   1.298   4.720   2.545  1.0641  0.4210 -0.8975
  470SOL    HW2 2035   1.234   4.570   2.555 -0.1006  0.9627 -0.0168
  471SOL     OW 2036   1.762   1.833   3.300  0.0559 -0.1990 -0.2831
  471SOL    HW1 2037   1.786   1.930   3.296 -0.6803  0.0093  0.2219
  471SOL    HW2 2038   1.695   1.812   3.229  1.8515 -0.8454 -1.8869
  472SOL     OW 2039   2.261   4.441   2.659  0.2737 -0.2132  0.0358
  472SOL    HW1 2040   2.330   4.498   2.614  1.8517  0.9286  3.5607
  472SOL    HW2 2041   2.172   4.486   2.653  0.1514 -0.6238 -2.6548
  473SOL     OW 2042   3.515   2.542   2.343 -0.3438  0.7641 -0.3618
  473SOL    HW1 2043   3.422   2.506   2.349 -0.6006  1.5096  0.5483
  473SOL    HW2 2044   3.514   2.630   2.295 -0.0903  0.7042 -0.4800
  474SOL     OW 2045   3.869   0.088   3.654 -0.8690 -0.3610  0.0936
  474SOL    HW1 2046   3.914   0.005   3.690  1.0061  1.2319  1.6497
  474SOL    HW2 2047   3.883   0.092   3.555  3.0486  0.2751  0.5273
  475SOL     OW 2048   4.733   1.135   4.559  0.6185  0.5644  0.3791
  475SOL    HW1 2049   4.684   1.213   4.522  0.4129  0.8088  1.1473
  475SOL    HW2 2050   4.703   1.118   4.653 -0.5905 -1.4930 -0.3152
  476SOL     OW 2051   0.403   0.783   2.597 -0.1429 -0.3532  0.0087
  476SOL    HW1 2052   0.384   0.727   2.517 -1.4738  1.2456 -0.8720
  476SOL    HW2 2053   0.317   0.810   2.640  0.3502  1.8001 -0.2267
  477SOL     OW 2054   4.326   4.143   2.357 -0.4819 -0.2394  0.3785
  477SOL    HW1 2055   4.376   4.138   2.443  1.0139  0.7361 -0.3940
  477SOL    HW2 2056   4.391   4.149   2.281 -1.7461  1.8307 -0.6169
  478SOL     OW 2057   2.879   4.910   0.875  0.0533  0.0827 -0.3997
  478SOL    HW1 2058   2.822   4.828   0.876 -1.0549  0.8458  0.5108
  478SOL    HW2 2059   2.974   4.885   0.897 -0.7776 -0.6087  2.9500
  479SOL     OW 2060   0.712   3.958   1.334  0.1339  0.4246 -0.5551
  479SOL    HW1 2061   0.637   4.000   1.284  2.2858  1.9827 -2.7290
  479SOL    HW2 2062   0.737   4.016   1.411 -0.3016  0.3599 -0.3618
  480SOL     OW 2063   2.220   1.032   1.934 -0.3814  0.4992 -0.3148
  480SOL    HW1 2064   2.264   0.945   1.955 -0.5093  0.0897 -1.6572
  480SOL    HW2 2065   2.127   1.016   1.901 -1.9116  1.3870  3.0988
  481SOL     OW 2066   3.637   4.723   3.349  0.2780  0.1669  0.0518
  481SOL    HW1 2067   3.605   4.791   3.284  1.0273  1.7555  1.2732
  481SOL    HW2 2068   3.564   4.701   3.414  0.7013  1.5962  1.0613
  482SOL     OW 2069   4.320   4.714   0.378  0.7363  0.6042 -0.1224
  482SOL    HW1 2070   4.244   4.779   0.383 -1.1882 -1.5913  2.2427
  482SOL    HW2 2071   4.384   4.732   0.454 -0.4321 -0.8394  1.2813
  483SOL     OW 2072   0.101   4.181   3.161  0.5503  0.3278  0.0695
  483SOL    HW1 2073   0.099   4.256   3.228  0.8290 -0.0614  0.5246
  483SOL    HW2 2074   0.113   4.218   3.069 -0.7237  0.9332  0.1308
  484SOL     OW 2075   4.691   0.856   1.348 -0.1929  0.2515 -0.1591
  484SOL    HW1 2076   4.741   0.796   1.285 -0.5297  0.4591 -0.6285
  484SOL    HW2 2077   4.684   0.948   1.309 -1.1804  0.1550 -0.2275
  485SOL     OW 2078   0.555   2.944   0.797 -0.3054  0.2544  0.0946
  485SOL    HW1 2079   0.653   2.927   0.782 -0.3047  0.7616 -0.5488
  485SOL    HW2 2080   0.537   2.953   0.895  0.0948 -0.9575  0.2961
  486SOL     OW 2081   1.328   3.480   1.049 -1.0269  0.2457  0.0257
  486SOL    HW1 2082   1.417   3.454   1.012 -2.7275 -3.6773 -1.8202
  486SOL    HW2 2083   1.340   3.516   1.142  2.4385  0.0335 -0.2065
  487SOL     OW 2084   3.731   4.250   0.122  0.3403 -0.1448 -0.1651
  487SOL    HW1 2085   3.823   4.272   0.154  0.4370 -2.1033  1.0689
  487SOL    HW2 2086   3.726   4.263   0.023  2.3068 -1.1714 -0.4360
  488SOL     OW 2087   3.298   3.293   2.702 -0.3186  0.1448 -0.4787
  488SOL    HW1 2088   3.326   3.313   2.796  2.1489  0.1759 -1.1518
  488SOL    HW2 2089   3.305   3.375   2.646 -0.0279 -0.2655 -1.0621
  489SOL     OW 2090   3.260   3.163   1.387 -0.1815 -0.0453  0.2893
  489SOL    HW1 2091   3.165   3.167   1.356 -0.6438  2.0915  1.7400
  489SOL    HW2 2092   3.320   3.140   1.310 -1.8147 -1.1782 -0.6969
  490SOL     OW 2093   4.596   4.856   0.833  0.4552 -0.0847  0.0099
  490SOL    HW1 2094   4.499   4.865   0.854  0.8244  1.0467  1.3847
  490SOL    HW2 2095   4.611   4.877   0.736 -0.9613 -2.7819 -0.8857
  491SOL     OW 2096   0.557   1.589   1.377 -0.1857  0.3854  0.6223
  491SOL    HW1 2097   0.637   1.534   1.356  0.8701  1.3368  1.9448
  491SOL    HW2 2098   0.527   1.639   1.296 -1.0177 -1.8881 -0.5276
  492SOL     OW 2099   2.197   4.511   2.277 -0.3086  0.0034 -0.5938
  492SOL    HW1 2100   2.105   4.543   2.302 -0.4477 -0.4722 -0.4744
  492SOL    HW2 2101   2.217   4.426   2.326  0.1066 -0.0175 -0.7936
  493SOL     OW 2102   3.877   3.909   2.915 -0.0107 -0.3748 -0.4103
  493SOL    HW1 2103   3.855   3.876   2.824  2.3638 -1.5501 -0.6338
  493SOL    HW2 2104   3.974   3.936   2.918 -0.1797  0.1528  1.6124
  494SOL     OW 2105   1.070   4.051   4.738  0.2526  0.1382  0.4155
  494SOL    HW1 2106   1.041   3.960   4.710  1.3568 -0.6829  1.8401
  494SOL    HW2 2107   1.006   4.119   4.700  0.5503 -0.9990 -2.3733
  495SOL     OW 2108   3.649   2.164   1.255  0.2562  0.4409 -0.0824
  495SOL    HW1 2109   3.561   2.178   1.210  0.2002 -1.1566 -0.5355
  495SOL    HW2 2110   3.653   2.219   1.338  0.2604  3.2636 -1.8426
  496SOL     OW 2111   2.413   3.979   4.750  0.6086 -0.6933 -0.6333
  496SOL    HW1 2112   2.490   4.043   4.738  1.0135 -1.3259 -1.5415
  496SOL    HW2 2113   2.380   3.984   4.844  0.3414  1.1664 -0.7804
  497SOL     OW 2114   1.150   1.589   2.156  0.3867 -0.2636 -0.4816
  497SOL    HW1 2115   1.236   1.547   2.125  0.7868 -0.3878  0.7253
  497SOL    HW2 2116   1.168   1.644   2.238 -0.1107  2.3944 -2.0600
  498SOL     OW 2117   0.641   2.463   2.733  0.0343  0.3272  0.1035
  498SOL    HW1 2118   0.571   2.414   2.681 -0.4083 -0.9350  1.7626
  498SOL    HW2 2119   0.709   2.398   2.767 -0.5293  0.8164  2.3249
  499SOL     OW 2120   2.529   3.785   0.526 -0.1602  0.5448  0.1551
  499SOL    HW1 2121   2.482   3.832   0.451 -0.9903 -0.3705  0.0803
  499SOL    HW2 2122   2.462   3.754   0.593  0.1829 -1.7286 -0.4827
  500SOL     OW 2123   0.944   4.549   4.148 -0.3636 -0.2315  0.6445
  500SOL    HW1 2124   0.962   4.644   4.176 -0.4888 -0.2640  0.8388
  500SOL    HW2 2125   0.971   4.487   4.222  1.4588 -0.4850 -0.1744
  501SOL     OW 2126   2.774   4.494   0.664  0.1732  0.2025 -0.0436
  501SOL    HW1 2127   2.786   4.564   0.593  1.0391  1.8113  1.6182
  501SOL    HW2 2128   2.850   4.428   0.659 -0.3431 -0.3441 -1.2466
  502SOL     OW 2129   1.189   1.016   3.904 -0.0005 -0.2401  0.1399
  502SOL    HW1 2130   1.250   0.945   3.940  0.1503  0.3276  1.0460
  502SOL    HW2 2131   1.118   1.035   3.972 -0.0328  0.4715 -0.0886
  503SOL     OW 2132   3.575   2.285   3.580  0.0409 -0.1685  0.0097
  503SOL    HW1 2133   3.569   2.291   3.680  1.4972  0.1341  0.1168
  503SOL    HW2 2134   3.493   2.325   3.539 -0.3363  0.2066  1.0832
  504SOL     OW 2135   4.315   4.044   3.949 -0.0698 -0.3154 -0.1240
  504SOL    HW1 2136   4.258   4.105   3.894  0.2075  0.1749  0.1324
  504SOL    HW2 2137   4.408   4.080   3.954  0.1648 -0.8955 -0.1895
  505SOL     OW 2138   0.670   0.081   0.632 -0.0114  0.1386 -0.1225
  505SOL    HW1 2139   0.658   0.100   0.535 -0.0476 -1.1616 -0.3938
  505SOL    HW2 2140   0.607   0.137   0.685  0.6055  1.5020 -0.7656
  506SOL     OW 2141   0.198   0.225   1.499  0.2479 -0.8329  0.2564
  506SOL    HW1 2142   0.220   0.313   1.541  2.2663 -1.1473 -0.0323
  506SOL    HW2 2143   0.116   0.187   1.542  0.1188  0.5617  1.3137
  507SOL     OW 2144   0.569   0.130   3.845 -0.7353  0.0574  0.3340
  507SOL    HW1 2145   0.533   0.125   3.752 -0.9570  0.2706  0.4083
  507SOL    HW2 2146   0.647   0.193   3.846 -0.9928  0.3832  0.3720
  508SOL     OW 2147   4.153   4.339   2.493 -0.1471 -0.1433  0.3086
  508SOL    HW1 2148   4.227   4.310   2.432  0.2727  0.1363  0.6797
  508SOL    HW2 2149   4.185   4.413   2.552  0.2492 -2.0487  2.6235
  509SOL     OW 2150   4.546   4.762   0.530 -0.2688 -0.4844  0.5073
  509SOL    HW1 2151   4.587   4.697   0.594 -0.6204  0.1386  1.3869
  509SOL    HW2 2152   4.606   4.774   0.451  0.8511 -0.2349  1.3718
  510SOL     OW 2153   3.845   3.241   1.154 -0.6877  0.8310 -0.2333
  510SOL    HW1 2154   3.808   3.289   1.075 -2.4756 -2.5075 -1.6583
  510SOL    HW2 2155   3.785   3.256   1.233  0.0755  2.6863  0.0409
  511SOL     OW 2156   2.162   3.764   2.614  0.2246 -0.3827  0.1292
  511SOL    HW1 2157   2.104   3.774   2.695  0.7236  0.2193  0.4287
  511SOL    HW2 2158   2.106   3.743   2.534 -0.2373 -1.4544  0.7110
  512SOL     OW 2159   0.014   0.820   3.427  0.0312  0.3471 -0.1235
  512SOL    HW1 2160  -0.042   0.773   3.495 -1.7088  1.2239 -0.8812
  512SOL    HW2 2161  -0.011   0.790   3.335 -0.6463  2.1836 -0.5848
  513SOL     OW 2162   0.658   3.150   1.336 -0.2364  0.2377 -0.1394
  513SOL    HW1 2163   0.563   3.126   1.352 -0.4254  1.6799  1.0005
  513SOL    HW2 2164   0.667   3.249   1.325  0.7829 -0.0750 -2.9225
  514SOL     OW 2165   2.010   3.411   2.603  0.1405  0.1774  0.3339
  514SOL    HW1 2166   2.025   3.489   2.543  1.9065 -0.3495  0.0138
  514SOL    HW2 2167   2.011   3.327   2.549 -0.3689 -0.1610  0.8414
  515SOL     OW 2168   0.016   1.266   3.093  0.4069  0.3233  0.6826
  515SOL    HW1 2169   0.090   1.199   3.105  0.0399  0.0934  1.7173
  515SOL    HW2 2170  -0.070   1.227   3.125  0.3204  1.5465  2.0034
  516SOL     OW 2171   2.396   3.989   0.324 -0.0366  0.4397  0.2713
  516SOL    HW1 2172   2.487   4.029   0.331 -0.3376  1.0991  0.4977
  516SOL    HW2 2173   2.327   4.061   0.332 -0.5853 -0.1049  0.5236
  517SOL     OW 2174   1.482   3.065   3.695 -0.2604  0.3060  0.1070
  517SOL    HW1 2175   1.442   3.120   3.768  0.8834  0.8529  0.3399
  517SOL    HW2 2176   1.557   3.115   3.652 -0.7950 -0.0867 -1.3321
  518SOL     OW 2177   4.008   1.030   4.353  0.1286  0.0600 -0.1588
  518SOL    HW1 2178   3.997   0.942   4.308 -0.8233 -1.6889  3.1929
  518SOL    HW2 2179   4.095   1.031   4.403 -1.2721 -0.4745  2.5256
  519SOL     OW 2180   4.851   3.764   1.389 -0.5773  0.2687  0.2832
  519SOL    HW1 2181   4.862   3.808   1.478  0.8706 -0.1668  0.3321
  519SOL    HW2 2182   4.917   3.690   1.379 -1.6239 -0.5928 -0.6223
  520SOL     OW 2183   1.119   1.764   0.471 -0.6383 -0.2298  0.1535
  520SOL    HW1 2184   1.163   1.734   0.386  2.7357  2.0459  0.9460
  520SOL    HW2 2185   1.057   1.840   0.451  0.6551  0.7528 -0.2710
  521SOL     OW 2186   2.555   3.048   2.762 -0.2275 -0.2102  0.7635
  521SOL    HW1 2187   2.622   3.100   2.708 -1.4420 -0.0294 -0.6356
  521SOL    HW2 2188   2.476   3.105   2.781 -0.4792 -0.7702  1.4411
  522SOL     OW 2189   0.537   4.545   0.995 -0.4077 -0.3120  0.4562
  522SOL    HW1 2190   0.609   4.607   1.024 -1.4397  1.0750  0.1407
  522SOL    HW2 2191   0.452   4.596   0.980 -1.8203 -2.0282  1.9695
  523SOL     OW 2192   3.296   0.730   1.403  0.1152  0.0988  0.0537
  523SOL    HW1 2193   3.311   0.813   1.350  0.3995 -0.4201 -0.6889
  523SOL    HW2 2194   3.322   0.650   1.349 -0.7865 -0.5220  0.5115
  524SOL     OW 2195   4.363   4.840   1.011 -0.5429 -0.0126  0.3105
  524SOL    HW1 2196   4.389   4.770   1.078 -0.8467  0.9780  1.4943
  524SOL    HW2 2197   4.282   4.809   0.962  0.5334 -1.4065 -0.6856
  525SOL     OW 2198   3.430   4.355   3.510  0.2338 -0.4161 -0.1428
  525SOL    HW1 2199   3.332   4.339   3.496  0.4508 -1.0384 -1.0384
  525SOL    HW2 2200   3.473   4.377   3.422  0.7030  1.0275  0.4092
  526SOL     OW 2201   3.519   4.191   2.371 -0.2399  0.5829  0.0620
  526SOL    HW1 2202   3.553   4.098   2.358 -4.7350 -1.3618  0.4699
  526SOL    HW2 2203   3.455   4.213   2.297 -1.8493  1.9649  1.7809
  527SOL     OW 2204   3.897   4.007   0.784  0.0280  0.3050  0.3245
  527SOL    HW1 2205   3.878   4.081   0.720  0.8687 -0.0104 -0.3080
  527SOL    HW2 2206   3.952   3.937   0.738  0.0190 -0.2768  1.1808
  528SOL     OW 2207   0.214   3.315   3.922  0.4274  0.2893 -0.1816
  528SOL    HW1 2208   0.307   3.295   3.890 -0.1290 -0.5237 -1.3741
  528SOL    HW2 2209   0.216   3.393   3.984  2.0376 -0.3576  0.6380
  529SOL     OW 2210   0.866   4.248   3.951  0.3961 -0.1129 -0.5489
  529SOL    HW1 2211   0.820   4.335   3.969  1.0728  0.3077 -0.8206
  529SOL    HW2 2212   0.798   4.177   3.935 -0.1630  0.3655 -0.3238
  530SOL     OW 2213   1.602   1.003   0.751 -0.2464  0.2725  0.0308
  530SOL    HW1 2214   1.619   0.929   0.686 -1.6291  0.8649 -1.0833
  530SOL    HW2 2215   1.586   0.966   0.842  0.4919 -0.6757 -0.2161
  531SOL     OW 2216   0.231   2.394   4.846 -0.3155 -0.4292 -0.2096
  531SOL    HW1 2217   0.242   2.328   4.772  1.1562 -0.4097 -0.0310
  531SOL    HW2 2218   0.248   2.348   4.934 -1.3003 -0.2769  0.0696
  532SOL     OW 2219   0.338   3.850   3.643 -0.6832 -0.1906  0.1354
  532SOL    HW1 2220   0.397   3.931   3.649 -2.0124  1.0248 -2.1149
  532SOL    HW2 2221   0.373   3.789   3.573 -2.5386  1.0493 -2.0030
  533SOL     OW 2222   3.672   1.829   4.207  0.2295 -0.5879 -0.2358
  533SOL    HW1 2223   3.720   1.817   4.120  1.9344 -0.2017  0.6089
  533SOL    HW2 2224   3.574   1.844   4.190  0.4758 -0.8571 -2.0455
  534SOL     OW 2225   1.159   4.385   0.048  0.1967  0.2381  0.0092
  534SOL    HW1 2226   1.078   4.434   0.080  0.7613  0.2850  1.4657
  534SOL    HW2 2227   1.145   4.286   0.060 -1.2350 -0.1453 -3.6042
  535SOL     OW 2228   0.683   1.367   4.040  0.4791 -0.2638  0.4053
  535SOL    HW1 2229   0.592   1.341   4.009  1.1070 -1.3760 -0.5777
  535SOL    HW2 2230   0.751   1.309   3.996  1.6700  0.5261  1.1506
  536SOL     OW 2231   1.611   2.264   2.850  0.2626 -0.0407 -0.3252
  536SOL    HW1 2232   1.684   2.248   2.784 -0.1700  1.5019 -1.2329
  536SOL    HW2 2233   1.522   2.254   2.804 -0.1583 -2.4626  0.8916
  537SOL     OW 2234   2.431   1.192   0.986 -0.0151 -0.0062  0.4944
  537SOL    HW1 2235   2.371   1.268   0.963 -0.7552 -0.8665 -0.4684
  537SOL    HW2 2236   2.525   1.216   0.961 -0.3771  0.2344 -0.6683
  538SOL     OW 2237   2.440   4.329   2.868 -0.2736  0.3228 -0.2375
  538SOL    HW1 2238   2.389   4.415   2.870  1.1526  1.1999 -0.2024
  538SOL    HW2 2239   2.487   4.321   2.780  0.0461 -0.1602 -0.0227
  539SOL     OW 2240   0.828   4.122   3.374  0.9601 -0.2005 -0.0965
  539SOL    HW1 2241   0.773   4.044   3.404  0.2568 -0.2859 -1.5005
  539SOL    HW2 2242   0.841   4.185   3.451 -0.3540 -0.6176  0.5046
  540SOL     OW 2243   0.545   0.392   4.238 -0.0509 -0.1032  0.3058
  540SOL    HW1 2244   0.590   0.350   4.317  1.0310 -0.0634 -0.2758
  540SOL    HW2 2245   0.508   0.481   4.263 -2.1853 -1.2480  1.5055
  541SOL     OW 2246   3.238   0.659   2.438 -0.4321 -0.0580 -0.6168
  541SOL    HW1 2247   3.237   0.610   2.525 -2.5458  0.7398 -0.1250
  541SOL    HW2 2248   3.284   0.747   2.450  1.3041 -0.8845 -0.9234
  542SOL     OW 2249   3.784   3.497   3.962  0.0597 -0.0255  0.3157
  542SOL    HW1 2250   3.812   3.531   4.052  1.0199 -0.8449  0.3486
  542SOL    HW2 2251   3.865   3.491   3.903 -0.7274  1.6713 -1.0161
  543SOL     OW 2252   0.685   0.453   2.422 -0.4939  0.6663  0.5846
  543SOL    HW1 2253   0.704   0.355   2.425 -1.2827  0.5262  1.1698
  543SOL    HW2 2254   0.771   0.503   2.438  0.6593  0.1714 -3.1352
  544SOL     OW 2255   2.241   1.575   4.314 -0.0895  0.2416 -0.1301
  544SOL    HW1 2256   2.279   1.508   4.378  1.7871  2.4562  1.2288
  544SOL    HW2 2257   2.141   1.566   4.312 -0.1132 -0.7246  2.2064
  545SOL     OW 2258   1.831   3.844   3.733  0.2379  0.3374  0.2461
  545SOL    HW1 2259   1.788   3.762   3.697 -0.5535  1.8401 -2.5271
  545SOL    HW2 2260   1.931   3.837   3.723  0.1827 -0.3094  0.1159
  546SOL     OW 2261   3.801   1.207   2.087  1.0478  0.3155 -0.3889
  546SOL    HW1 2262   3.821   1.211   1.989 -2.5847  0.5377 -1.2359
  546SOL    HW2 2263   3.789   1.300   2.122 -0.2234  0.1682 -0.3861
  547SOL     OW 2264   2.432   0.809   2.086 -0.5617  0.0819  0.1171
  547SOL    HW1 2265   2.396   0.831   2.177 -0.5481  0.2283  0.0866
  547SOL    HW2 2266   2.519   0.856   2.072 -0.0066 -0.8170  0.4617
  548SOL     OW 2267   4.821   1.450   1.268 -0.3782  0.6732  0.4925
  548SOL    HW1 2268   4.824   1.476   1.364 -2.9422  0.3692  0.7368
  548SOL    HW2 2269   4.893   1.382   1.249  0.5993  1.2368  1.9954
  549SOL     OW 2270   0.285   4.689   0.911 -0.0998 -0.0720 -0.0873
  549SOL    HW1 2271   0.235   4.775   0.918  0.8304  0.5694 -1.1072
  549SOL    HW2 2272   0.295   4.664   0.815  1.0560 -0.4691  0.1214
  550SOL     OW 2273   0.251   4.907   0.365  0.2824  0.4542 -0.0472
  550SOL    HW1 2274   0.317   4.896   0.439  0.1323 -0.3804 -0.0278
  550SOL    HW2 2275   0.267   4.835   0.296  1.7564  2.3744 -1.8634
  551SOL     OW 2276   2.029   4.689   0.741  0.1700  0.6793 -0.6134
  551SOL    HW1 2277   1.990   4.758   0.680  0.1096  1.7601  0.6041
  551SOL    HW2 2278   2.126   4.709   0.755 -0.1034  1.2041  0.6269
  552SOL     OW 2279   1.777   0.117   3.683 -0.1663  0.0307 -0.0975
  552SOL    HW1 2280   1.852   0.119   3.617 -0.0052 -1.2285  0.0334
  552SOL    HW2 2281   1.747   0.211   3.702  2.4875  0.7042  1.1332
  553SOL     OW 2282   2.518   1.700   2.772 -0.2077 -0.2203  0.7804
  553SOL    HW1 2283   2.456   1.669   2.701 -1.4475 -1.8385  2.4852
  553SOL    HW2 2284   2.498   1.796   2.795 -1.2535 -0.3581  0.4577
  554SOL     OW 2285   3.781   2.036   0.167  0.0293 -0.3990  0.3597
  554SOL    HW1 2286   3.724   2.059   0.246 -1.2736  0.5893 -0.8305
  554SOL    HW2 2287   3.860   1.983   0.198 -0.5326 -0.1888  2.2977
  555SOL     OW 2288   4.902   1.896   4.774 -0.0209 -0.5183 -0.4654
  555SOL    HW1 2289   4.895   1.841   4.690 -0.7215 -0.1832 -0.6359
  555SOL    HW2 2290   4.835   1.970   4.770 -0.5984 -0.9696  0.7539
  556SOL     OW 2291   1.710   0.747   4.457 -0.0761 -0.2461 -0.3793
  556SOL    HW1 2292   1.725   0.670   4.395  0.2959 -0.3297 -0.1907
  556SOL    HW2 2293   1.747   0.830   4.415 -0.2970 -0.2063 -0.4959
  557SOL     OW 2294   1.410   2.217   2.664 -0.3581 -0.0008 -0.7149
  557SOL    HW1 2295   1.453   2.301   2.633 -0.0434  0.0784 -0.0877
  557SOL    HW2 2296   1.440   2.141   2.607  1.0110 -0.0307 -0.0108
  558SOL     OW 2297   4.516   2.368   0.775 -0.1357  0.1916  0.3495
  558SOL    HW1 2298   4.462   2.374   0.691  0.2018 -0.4585  0.0839
  558SOL    HW2 2299   4.496   2.448   0.833  0.3173  1.1341 -0.7453
  559SOL     OW 2300   0.003   2.231   4.412  0.4307  0.0176  0.1909
  559SOL    HW1 2301   0.062   2.161   4.452  0.8696 -0.2383 -0.8717
  559SOL    HW2 2302   0.053   2.317   4.405  0.7613 -0.2333 -0.8332
  560SOL     OW 2303   0.190   1.252   1.489  0.1676 -0.4042  0.1877
  560SOL    HW1 2304   0.282   1.289   1.482 -0.4411  1.4385  1.2579
  560SOL    HW2 2305   0.149   1.282   1.576 -2.4106  1.1521 -1.4537
  561SOL     OW 2306   2.034   3.726   2.866 -0.0753 -0.2676 -0.1304
  561SOL    HW1 2307   1.945   3.711   2.908  0.1035 -1.1010 -0.0314
  561SOL    HW2 2308   2.106   3.699   2.930  0.2202 -0.7088 -0.6449
  562SOL     OW 2309   2.213   0.633   2.478  0.3637 -0.1263 -0.2058
  562SOL    HW1 2310   2.186   0.563   2.544  0.3587 -1.2944 -1.3966
  562SOL    HW2 2311   2.138   0.649   2.414  0.6196  0.4654 -0.3618
  563SOL     OW 2312   1.067   0.066   0.913  0.4257  0.1512  0.3097
  563SOL    HW1 2313   1.021   0.151   0.888 -1.1492 -0.7036  0.2082
  563SOL    HW2 2314   1.119   0.032   0.834 -1.1373 -0.3615 -0.5422
  564SOL     OW 2315   1.807   2.130   0.724 -0.1825 -0.2900 -0.4107
  564SOL    HW1 2316   1.889   2.125   0.780 -0.1923  1.1452 -0.2343
  564SOL    HW2 2317   1.776   2.037   0.702  0.9055 -0.8554  0.3430
  565SOL     OW 2318   4.094   1.373   3.485 -0.0913 -0.4529  0.2864
  565SOL    HW1 2319   4.155   1.371   3.565  0.2121  1.5164  0.1612
  565SOL    HW2 2320   4.149   1.384   3.402 -0.5389  0.0908  0.0576
  566SOL     OW 2321   2.745   3.466   0.998 -0.0293 -0.5615  0.1723
  566SOL    HW1 2322   2.725   3.532   0.925  0.1630 -0.4039  0.2614
  566SOL    HW2 2323   2.692   3.489   1.079  0.8090  0.1035  0.5463
  567SOL     OW 2324   0.308   1.401   3.661 -0.2475  0.4401  0.1588
  567SOL    HW1 2325   0.225   1.456   3.656 -1.2817 -1.0407  0.4473
  567SOL    HW2 2326   0.284   1.307   3.686  1.6043  0.1918  1.1578
  568SOL     OW 2327   1.399   1.395   1.543  0.5445 -0.3396 -0.0690
  568SOL    HW1 2328   1.361   1.459   1.610 -0.3757 -0.6631 -0.2720
  568SOL    HW2 2329   1.382   1.428   1.451 -0.8829 -1.3622 -0.2095
  569SOL     OW 2330   0.969   4.409   0.443 -0.5611  0.2105 -0.1780
  569SOL    HW1 2331   0.943   4.472   0.516 -1.3530  0.0692 -0.3330
  569SOL    HW2 2332   0.888   4.383   0.391 -0.4507 -1.8818  0.6164
  570SOL     OW 2333   4.198   1.653   0.278  0.5277  0.5119 -0.3794
  570SOL    HW1 2334   4.137   1.619   0.350 -0.3883  1.8449 -0.4617
  570SOL    HW2 2335   4.237   1.577   0.227 -0.9172 -0.4043 -0.1687
  571SOL     OW 2336   2.665   2.491   0.789 -0.2058 -0.5232 -0.5215
  571SOL    HW1 2337   2.617   2.490   0.877  2.8922  1.2430  1.3861
  571SOL    HW2 2338   2.599   2.488   0.715 -2.9616 -2.8121  1.7790
  572SOL     OW 2339   0.107   1.025   3.621 -0.0313  0.2070  0.4819
  572SOL    HW1 2340   0.100   1.093   3.548  0.2153  0.5338  0.7616
  572SOL    HW2 2341   0.112   0.934   3.581 -0.4049  0.3474  0.1044
  573SOL     OW 2342   1.930   4.551   1.954 -0.5231  0.1171  0.1927
  573SOL    HW1 2343   2.030   4.564   1.954 -0.7832  2.5315  0.3960
  573SOL    HW2 2344   1.904   4.493   2.031  0.5278  1.5383  1.6701
  574SOL     OW 2345   2.190   1.315   1.262  0.6859 -0.4857 -0.2275
  574SOL    HW1 2346   2.091   1.322   1.262  0.6610 -0.6452  1.1063
  574SOL    HW2 2347   2.218   1.224   1.291  1.2288 -0.6619 -1.2436
  575SOL     OW 2348   0.500   4.118   0.698 -1.1391  0.0063 -0.3685
  575SOL    HW1 2349   0.515   4.043   0.762 -0.4033 -1.1023 -1.7620
  575SOL    HW2 2350   0.477   4.201   0.748  0.1839 -0.6138  1.3724
  576SOL     OW 2351   1.307   4.660   2.227  0.0390  0.0884 -0.1530
  576SOL    HW1 2352   1.295   4.567   2.193 -0.3130 -0.1480  0.5928
  576SOL    HW2 2353   1.344   4.657   2.320 -2.4051  0.5889  0.9309
  577SOL     OW 2354   1.640   1.003   1.443 -0.0168 -0.2601 -0.0408
  577SOL    HW1 2355   1.611   0.957   1.527 -0.9527  1.7385  0.7903
  577SOL    HW2 2356   1.563   1.053   1.403  1.1878  1.5155 -0.2542
  578SOL     OW 2357   3.621   1.577   4.352 -0.0619  0.0807  0.0243
  578SOL    HW1 2358   3.531   1.587   4.309 -0.5220 -0.8151  0.7499
  578SOL    HW2 2359   3.677   1.658   4.332 -1.8148  1.7511  1.4562
  579SOL     OW 2360   3.830   4.542   3.093 -0.3659 -0.1373  0.2701
  579SOL    HW1 2361   3.929   4.543   3.109  0.0903  1.8413 -1.9947
  579SOL    HW2 2362   3.806   4.467   3.032 -0.1548 -0.2210  0.2909
  580SOL     OW 2363   3.961   0.440   1.081  0.3791 -0.2788 -0.3973
  580SOL    HW1 2364   3.964   0.538   1.099  0.4011 -0.3689  0.0916
  580SOL    HW2 2365   3.872   0.404   1.110  0.2595 -0.3532 -0.8448
  581SOL     OW 2366   4.633   0.392   2.373 -0.2092 -0.9907  0.1651
  581SOL    HW1 2367   4.587   0.432   2.453  0.0015 -2.1177  0.8687
  581SOL    HW2 2368   4.566   0.374   2.302 -0.0751  2.3873 -0.9954
  582SOL     OW 2369   3.860   2.000   2.758 -0.6209  0.5636  0.3152
  582SOL    HW1 2370   3.875   2.020   2.662  1.1739 -0.7563  0.2722
  582SOL    HW2 2371   3.907   2.068   2.815 -1.1913  1.0021  0.2735
  583SOL     OW 2372   1.287   3.859   2.642  0.1627  0.0825  0.1044
  583SOL    HW1 2373   1.223   3.829   2.712  0.5403 -0.8545  0.0612
  583SOL    HW2 2374   1.277   3.802   2.561 -0.4692  1.3359 -0.7332
  584SOL     OW 2375   2.725   3.810   4.336  0.4821  0.6682  0.1529
  584SOL    HW1 2376   2.721   3.725   4.389  0.6816 -1.2961 -2.7349
  584SOL    HW2 2377   2.819   3.845   4.337  0.0949  1.8580  2.6531
  585SOL     OW 2378   3.460   3.037   4.854  0.1095  0.3344  0.4540
  585SOL    HW1 2379   3.460   3.137   4.858 -1.3611  0.3655  0.3073
  585SOL    HW2 2380   3.388   3.001   4.912  0.9907 -0.6882  0.9600
  586SOL     OW 2381   0.953   1.980   0.437 -0.1742  0.3548 -0.0883
  586SOL    HW1 2382   0.909   1.928   0.364  0.8473  0.0648 -0.5201
  586SOL    HW2 2383   0.905   2.067   0.451  0.0028  0.7057 -1.5513
  587SOL     OW 2384   1.610   3.173   0.849 -0.6584  0.1321 -0.3569
  587SOL    HW1 2385   1.585   3.077   0.837  0.8475 -0.1856 -1.1585
  587SOL    HW2 2386   1.706   3.180   0.877 -0.8169  1.4006 -0.0729
  588SOL     OW 2387   3.372   3.651   1.552  0.0442 -0.2695  0.8634
  588SOL    HW1 2388   3.358   3.552   1.554  0.6774 -0.3571  1.4484
  588SOL    HW2 2389   3.354   3.685   1.460  1.0337 -1.1271  0.3276
  589SOL     OW 2390   1.256   2.053   1.946  0.4938 -0.5347  0.4437
  589SOL    HW1 2391   1.267   2.150   1.964 -0.0205 -0.6390  1.3887
  589SOL    HW2 2392   1.271   2.035   1.849  1.5691  0.3317  0.4295
  590SOL     OW 2393   4.709   2.223   3.203 -0.1363  0.2475 -0.0606
  590SOL    HW1 2394   4.730   2.176   3.288  0.1753  0.9129  0.2288
  590SOL    HW2 2395   4.763   2.306   3.195  0.8795 -0.4983 -1.5620
  591SOL     OW 2396   3.316   4.133   3.822 -0.1343  0.1091 -0.3488
  591SOL    HW1 2397   3.224   4.161   3.848 -0.6871  1.1503 -3.0590
  591SOL    HW2 2398   3.368   4.214   3.793  1.1349 -0.6701 -0.3396
  592SOL     OW 2399   0.586   3.487   3.893  0.0361  0.7178 -0.2942
  592SOL    HW1 2400   0.519   3.561   3.903  0.7706  1.1558  1.9417
  592SOL    HW2 2401   0.618   3.459   3.983 -0.9655 -3.0794 -0.9277
  593SOL     OW 2402   4.693   4.443   4.647  0.1602 -0.0422 -0.6160
  593SOL    HW1 2403   4.708   4.539   4.622  1.7555 -0.3407 -0.8923
  593SOL    HW2 2404   4.724   4.384   4.573 -2.3758 -0.7756 -1.1794
  594SOL     OW 2405   1.993   0.687   1.171  0.2555 -0.5503  0.2496
  594SOL    HW1 2406   1.958   0.619   1.107 -0.1425 -1.4108  1.3511
  594SOL    HW2 2407   2.093   0.684   1.171  0.2439 -1.0465  0.1872
  595SOL     OW 2408   4.458   4.592   2.238 -0.0394  0.6879  0.6508
  595SOL    HW1 2409   4.538   4.632   2.194 -0.4931  1.0129  0.1049
  595SOL    HW2 2410   4.411   4.532   2.173 -1.3104  1.9920  0.2978
  596SOL     OW 2411   0.889   1.264   3.922 -0.0294  0.4108  0.5326
  596SOL    HW1 2412   0.915   1.180   3.969 -1.6121 -0.9974 -0.9706
  596SOL    HW2 2413   0.972   1.318   3.903  1.0130 -0.7407  1.5783
  597SOL     OW 2414   4.897   1.797   4.105  0.1570  0.0204  0.0848
  597SOL    HW1 2415   4.910   1.875   4.043  0.2959  0.1396  0.2660
  597SOL    HW2 2416   4.969   1.729   4.088 -0.4733 -0.4783 -0.6960
  598SOL     OW 2417   1.700   2.862   0.813  0.1574  0.1260 -0.1841
  598SOL    HW1 2418   1.729   2.809   0.733 -0.2751 -0.7554  0.2234
  598SOL    HW2 2419   1.780   2.880   0.871  0.2958 -0.1502 -0.2862
  599SOL     OW 2420   3.018   1.650   3.591 -0.1912 -0.4472  0.1795
  599SOL    HW1 2421   2.976   1.638   3.501 -0.1596  1.2857 -0.0992
  599SOL    HW2 2422   3.042   1.746   3.603  2.1917 -1.0987  1.0021
  600SOL     OW 2423   1.519   0.329   3.591  0.1245 -0.4357  0.5477
  600SOL    HW1 2424   1.479   0.418   3.571  0.3559  0.6119  4.0791
  600SOL    HW2 2425   1.619   0.339   3.600  0.1117 -0.9305  1.3498
  601SOL     OW 2426   0.191   1.007   2.424 -0.4760 -0.5191  0.2545
  601SOL    HW1 2427   0.242   1.011   2.337  0.3419 -2.5294  0.6025
  601SOL    HW2 2428   0.154   0.915   2.437  1.1278 -0.8632  2.9735
  602SOL     OW 2429   3.056   2.164   1.158  0.2240  0.1874  0.8805
  602SOL    HW1 2430   2.990   2.197   1.091  0.2071  0.2959  0.9504
  602SOL    HW2 2431   3.091   2.075   1.129  3.6195  2.0799 -1.7376
  603SOL     OW 2432   2.740   0.237   4.302  0.1959  0.1014  0.1592
  603SOL    HW1 2433   2.646   0.222   4.269  0.1898  2.4060 -1.0578
  603SOL    HW2 2434   2.747   0.327   4.344  1.6119 -0.5249  1.3313
  604SOL     OW 2435   4.512   4.587   3.046 -0.2615 -0.2356  0.2682
  604SOL    HW1 2436   4.564   4.515   3.091  0.0433 -0.6664 -0.7387
  604SOL    HW2 2437   4.562   4.673   3.052 -0.0142 -0.3859  0.3745
  605SOL     OW 2438   1.691   1.316   0.477 -0.7489 -0.1636  0.3337
  605SOL    HW1 2439   1.680   1.363   0.389 -1.9959  0.6158  0.8839
  605SOL    HW2 2440   1.693   1.217   0.461  0.5289 -0.0059 -0.6997
  606SOL     OW 2441   3.155   0.943   0.073 -0.2863 -0.1460  0.5274
  606SOL    HW1 2442   3.230   0.893   0.116 -0.0866 -0.5581 -0.3003
  606SOL    HW2 2443   3.185   1.035   0.048 -0.4147  0.1120  1.2932
  607SOL     OW 2444   0.453   1.340   0.815 -0.2269 -0.0158 -0.1973
  607SOL    HW1 2445   0.362   1.311   0.844  0.6791  0.3884  3.4147
  607SOL    HW2 2446   0.522   1.284   0.861  1.4033  1.3120 -0.9266
  608SOL     OW 2447   1.422   4.424   1.975 -0.1555  0.1542  0.0168
  608SOL    HW1 2448   1.336   4.464   1.942 -0.2865 -1.2614 -1.4556
  608SOL    HW2 2449   1.485   4.414   1.899  0.5769 -0.6913  0.7228
  609SOL     OW 2450   3.462   3.782   2.981 -0.6261 -0.0557  0.0445
  609SOL    HW1 2451   3.362   3.779   2.989 -0.4745  0.1276  2.7968
  609SOL    HW2 2452   3.501   3.701   3.024  0.4606 -0.0043 -0.8061
  610SOL     OW 2453   4.543   0.772   2.997 -0.8443  0.0874 -0.2299
  610SOL    HW1 2454   4.572   0.748   2.905  1.7334 -0.2656  0.6029
  610SOL    HW2 2455   4.611   0.832   3.040 -2.5215  1.1534  1.0890
  611SOL     OW 2456   3.990   4.637   2.219 -0.0409  0.0161 -0.2484
  611SOL    HW1 2457   4.072   4.637   2.162 -0.1804  0.6169 -0.4551
  611SOL    HW2 2458   3.969   4.731   2.247 -0.2926 -0.2083  0.3343
  612SOL     OW 2459   3.516   4.478   2.787  0.1432 -0.3091 -0.1060
  612SOL    HW1 2460   3.509   4.535   2.869  1.3491 -0.3277  0.0286
  612SOL    HW2 2461   3.425   4.465   2.747 -0.2173  1.3896  0.0789
  613SOL     OW 2462   4.670   0.145   1.490 -0.2933  0.8231 -0.0536
  613SOL    HW1 2463   4.619   0.204   1.552 -0.6832 -1.0276  1.4720
  613SOL    HW2 2464   4.623   0.057   1.481  1.5105 -0.1776 -0.2578
  614SOL     OW 2465   3.057   1.604   4.330  0.2091 -0.6294 -0.0550
  614SOL    HW1 2466   2.963   1.572   4.321  0.5695 -1.7063 -0.0755
  614SOL    HW2 2467   3.061   1.677   4.398 -0.4617 -1.3927  0.8315
  615SOL     OW 2468   3.870   4.813   3.960  0.7002  0.3377  0.4233
  615SOL    HW1 2469   3.928   4.812   3.878 -1.1385 -0.1729 -0.9412
  615SOL    HW2 2470   3.923   4.779   4.038  1.7357 -1.9772 -1.1491
  616SOL     OW 2471   4.326   4.194   2.802  0.1591  0.4997 -0.0954
  616SOL    HW1 2472   4.304   4.288   2.829  1.1946  0.4511  0.9363
  616SOL    HW2 2473   4.366   4.195   2.710  1.0357  1.1668  0.2852
  617SOL     OW 2474   1.012   3.784   2.271  0.1639  0.2583  0.1235
  617SOL    HW1 2475   0.978   3.825   2.186 -1.1900 -1.4757 -0.2334
  617SOL    HW2 2476   0.934   3.765   2.332  1.0386  0.7384  1.4261
  618SOL     OW 2477   3.389   2.042   1.456  0.1502  0.2977 -0.0709
  618SOL    HW1 2478   3.363   2.063   1.362 -1.6249  3.2544  0.9557
  618SOL    HW2 2479   3.459   2.106   1.486  2.4179 -2.0621  0.0164
  619SOL     OW 2480   2.705   4.400   2.936 -0.2880  0.1057  0.1428
  619SOL    HW1 2481   2.608   4.384   2.951 -0.6108  1.4395 -0.3618
  619SOL    HW2 2482   2.751   4.313   2.917 -1.8950 -0.2562 -2.5624
  620SOL     OW 2483   2.873   1.186   0.112 -0.2660  0.3730 -0.3748
  620SOL    HW1 2484   2.967   1.158   0.131 -0.4444 -0.3773 -0.5544
  620SOL    HW2 2485   2.825   1.112   0.064 -0.0362  1.8533 -3.0967
  621SOL     OW 2486   0.924   0.292   0.088 -0.0365  0.2804  0.6465
  621SOL    HW1 2487   0.838   0.263   0.046  0.5206  0.2459 -0.5003
  621SOL    HW2 2488   0.996   0.227   0.065  0.6313  1.1198  0.3369
  622SOL     OW 2489   0.128   3.872   0.538  0.1775 -0.0871 -0.7700
  622SOL    HW1 2490   0.111   3.837   0.446 -1.1470 -1.2207 -0.1277
  622SOL    HW2 2491   0.162   3.797   0.596 -1.4210 -0.0291  0.2918
  623SOL     OW 2492   2.463   2.057   3.651 -0.0167 -0.1136 -0.0952
  623SOL    HW1 2493   2.477   2.148   3.611  0.7768 -1.1924 -2.4338
  623SOL    HW2 2494   2.374   2.022   3.621 -0.1798 -0.2655  0.5470
  624SOL     OW 2495   3.303   4.456   0.034 -0.6927 -0.1460 -0.2366
  624SOL    HW1 2496   3.267   4.436  -0.057 -1.3338 -1.9261  0.3692
  624SOL    HW2 2497   3.323   4.371   0.082  1.3679  0.7760  0.6512
  625SOL     OW 2498   3.307   0.645   0.717  0.5591  0.3942  0.8607
  625SOL    HW1 2499   3.355   0.631   0.631 -1.0140 -0.1057  0.0201
  625SOL    HW2 2500   3.241   0.720   0.706 -1.6149 -1.4560  0.7411
  626SOL     OW 2501   2.467   0.493   3.865 -0.0791 -0.4822 -0.1613
  626SOL    HW1 2502   2.471   0.394   3.874  0.4936 -0.4402  0.0914
  626SOL    HW2 2503   2.540   0.524   3.803  0.0997 -0.1708  0.1999
  627SOL     OW 2504   4.049   3.848   0.262 -0.1224  0.4098 -0.4104
  627SOL    HW1 2505   3.964   3.805   0.292 -0.0829  0.6252  0.0142
  627SOL    HW2 2506   4.033   3.900   0.178 -0.6537  1.3586  0.2723
  628SOL     OW 2507   0.915   3.950   1.009  0.2273  0.3032 -0.4941
  628SOL    HW1 2508   0.874   3.873   1.057 -0.0704  1.5997  1.4572
  628SOL    HW2 2509   0.856   4.030   1.017  1.9899  1.5917  0.3397
  629SOL     OW 2510   1.351   3.932   3.529 -0.2788  0.5355  0.5667
  629SOL    HW1 2511   1.338   3.995   3.453 -1.8703 -2.5129 -1.9348
  629SOL    HW2 2512   1.263   3.912   3.572 -0.0178 -0.8772  0.4972
  630SOL     OW 2513   4.328   2.507   0.256 -0.4483 -0.1810  0.5107
  630SOL    HW1 2514   4.296   2.454   0.334 -0.3933  0.6861  1.1298
  630SOL    HW2 2515   4.263   2.581   0.237  0.0112  0.1793  0.3234
  631SOL     OW 2516   1.057   0.215   3.508  0.3528 -0.0461 -0.2854
  631SOL    HW1 2517   1.136   0.215   3.570 -0.9488 -0.1657  1.4683
  631SOL    HW2 2518   1.047   0.305   3.466  1.5792 -0.1172 -0.7518
  632SOL     OW 2519   3.947   2.488   1.442  0.2052  0.1191 -0.4706
  632SOL    HW1 2520   3.984   2.458   1.354 -0.1602 -0.7204 -0.3386
  632SOL    HW2 2521   3.848   2.484   1.440  0.1588  1.0153 -0.3347
  633SOL     OW 2522   0.141   4.055   1.296 -0.2458 -0.1062 -0.2980
  633SOL    HW1 2523   0.201   4.059   1.216  0.2332  0.4654  0.0829
  633SOL    HW2 2524   0.054   4.012   1.270  0.7885 -2.1588 -0.5453
  634SOL     OW 2525   1.992   1.017   4.660  0.0451  0.1674 -0.3939
  634SOL    HW1 2526   1.911   1.062   4.623 -1.1426 -1.5363  0.0511
  634SOL    HW2 2527   1.965   0.950   4.729  2.0694  2.4358  2.9331
  635SOL     OW 2528   4.249   1.961   3.458  0.3034  0.1700  0.0891
  635SOL    HW1 2529   4.220   1.871   3.426  0.5317 -0.2814  1.1017
  635SOL    HW2 2530   4.213   2.032   3.398  0.3155 -0.6108 -0.8595
  636SOL     OW 2531   0.546   0.356   1.721 -0.1963  0.4971 -0.1227
  636SOL    HW1 2532   0.458   0.323   1.686 -0.7480  1.0694  0.6737
  636SOL    HW2 2533   0.589   0.415   1.653 -0.0742 -0.3749 -0.8124
  637SOL     OW 2534   2.578   2.028   2.110  0.1712  0.2431  0.0986
  637SOL    HW1 2535   2.650   2.081   2.155 -0.2535  0.6451  0.3260
  637SOL    HW2 2536   2.504   2.090   2.084 -0.4479 -0.2839  0.5919
  638SOL     OW 2537   0.084   1.793   3.605 -0.3363 -0.6365 -0.3757
  638SOL    HW1 2538   0.052   1.835   3.520 -0.2508 -0.8845 -0.5293
  638SOL    HW2 2539   0.165   1.842   3.637 -1.2481  0.4384  0.3799
  639SOL     OW 2540   1.709   0.722   2.726 -0.1108  0.3135 -0.2870
  639SOL    HW1 2541   1.778   0.777   2.773  0.2452  0.7559 -1.2792
  639SOL    HW2 2542   1.718   0.626   2.752  0.3619  0.4900  0.1969
  640SOL     OW 2543   0.438   2.364   2.609  0.1251 -0.1892 -0.0557
  640SOL    HW1 2544   0.430   2.292   2.540 -0.7766 -0.2588  0.1127
  640SOL    HW2 2545   0.393   2.335   2.694 -0.0040  0.4584  0.1059
  641SOL     OW 2546   0.463   0.068   0.819  0.3102  0.4964 -0.6803
  641SOL    HW1 2547   0.391   0.094   0.883  0.2920 -0.2291 -0.4012
  641SOL    HW2 2548   0.540   0.029   0.869  0.4685  0.2996 -1.0718
  642SOL     OW 2549   0.295   1.384   1.109 -0.4801  0.4831 -0.0648
  642SOL    HW1 2550   0.387   1.373   1.146 -1.4447  0.1662  2.4386
  642SOL    HW2 2551   0.262   1.477   1.128 -1.8786 -0.3950  2.2094
  643SOL     OW 2552   4.752   1.217   1.495  0.3026  0.3625 -0.2745
  643SOL    HW1 2553   4.836   1.171   1.525 -0.6112 -1.0181  0.2097
  643SOL    HW2 2554   4.737   1.198   1.398  0.9992  1.3630 -0.6048
  644SOL     OW 2555   1.504   1.841   0.022 -0.0948  0.3137 -0.0632
  644SOL    HW1 2556   1.564   1.814  -0.052  0.6114  0.4485  0.4514
  644SOL    HW2 2557   1.412   1.807   0.005  0.7548 -2.5527  0.5970
  645SOL     OW 2558   3.225   1.055   4.188 -0.1707 -0.9125  0.0954
  645SOL    HW1 2559   3.226   1.019   4.281 -1.1503 -0.1193  0.4348
  645SOL    HW2 2560   3.276   1.140   4.184 -1.3282 -0.1785  0.2694
  646SOL     OW 2561   4.384   1.118   3.536  0.3513  0.9275  0.0573
  646SOL    HW1 2562   4.301   1.100   3.484  0.9713 -0.8850 -0.3829
  646SOL    HW2 2563   4.397   1.216   3.546 -0.8716  1.2773 -1.4518
  647SOL     OW 2564   1.669   0.711   0.973 -0.1227 -0.1247 -0.1906
  647SOL    HW1 2565   1.737   0.745   0.909  0.7223  0.6517  1.0876
  647SOL    HW2 2566   1.603   0.783   0.994  0.1203 -0.0937  0.4865
  648SOL     OW 2567   2.205   1.960   3.561 -0.3507 -0.3047 -0.4532
  648SOL    HW1 2568   2.165   1.937   3.649 -0.2553 -1.3935 -0.6749
  648SOL    HW2 2569   2.142   1.933   3.488 -1.0050  1.7527 -0.7190
  649SOL     OW 2570   0.793   0.894   3.366 -0.4716  0.0426  0.1683
  649SOL    HW1 2571   0.733   0.974   3.365 -0.0007  0.5117  2.4989
  649SOL    HW2 2572   0.888   0.924   3.368 -0.2967 -0.3823  3.3829
  650SOL     OW 2573   4.439   4.732   0.135  0.6295  0.2437 -0.1159
  650SOL    HW1 2574   4.410   4.742   0.230  1.2113  0.5632  0.0319
  650SOL    HW2 2575   4.533   4.697   0.132  0.9063  1.0130 -0.5564
  651SOL     OW 2576   3.456   0.445   1.676 -1.0225 -0.3542 -0.3172
  651SOL    HW1 2577   3.449   0.545   1.671  1.1198 -0.1340  0.3921
  651SOL    HW2 2578   3.431   0.415   1.768  0.7952 -0.1859  0.2625
  652SOL     OW 2579   1.362   3.618   2.833 -0.0221  0.5933  0.0874
  652SOL    HW1 2580   1.314   3.634   2.920 -0.2232  1.1344 -0.1235
  652SOL    HW2 2581   1.311   3.551   2.779 -0.5435  1.1669 -0.1352
  653SOL     OW 2582   0.756   1.411   1.309  0.1826  0.4646 -0.4676
  653SOL    HW1 2583   0.772   1.321   1.351  0.8410  0.5473 -0.5175
  653SOL    HW2 2584   0.839   1.439   1.260  0.8136  2.0974  1.3978
  654SOL     OW 2585   1.335   0.526   0.428 -0.3631 -0.8282 -0.0324
  654SOL    HW1 2586   1.406   0.487   0.369  0.7277 -0.6625  1.1220
  654SOL    HW2 2587   1.378   0.569   0.508 -1.8557 -2.6589  1.8560
  655SOL     OW 2588   4.868   1.602   1.054 -0.3172  0.5543 -0.0823
  655SOL    HW1 2589   4.853   1.529   1.120  0.5126 -0.0409 -0.5409
  655SOL    HW2 2590   4.963   1.635   1.062  0.3509 -0.7074 -2.1186
  656SOL     OW 2591   2.021   2.506   1.089  0.1107 -0.3517  0.9764
  656SOL    HW1 2592   2.064   2.420   1.116  1.1018  0.4783  2.1526
  656SOL    HW2 2593   1.923   2.492   1.074  0.4767 -1.9338 -0.1334
  657SOL     OW 2594   1.785   2.511   2.564 -0.6389 -0.4685  0.0943
  657SOL    HW1 2595   1.819   2.506   2.471 -0.0820  0.6484  0.2179
  657SOL    HW2 2596   1.805   2.426   2.612  0.2586 -0.5555 -0.4159
  658SOL     OW 2597   2.740   4.909   2.852 -0.3313 -0.5630  0.2739
  658SOL    HW1 2598   2.675   4.951   2.789  0.3109 -0.1511 -0.1285
  658SOL    HW2 2599   2.700   4.827   2.892 -0.6938 -0.9276 -0.7944
  659SOL     OW 2600   4.823   2.536   2.890 -0.5601  0.1839 -0.2972
  659SOL    HW1 2601   4.834   2.454   2.834 -2.5703  0.3214 -0.9778
  659SOL    HW2 2602   4.746   2.589   2.856 -1.0979  0.8892  1.8808
  660SOL     OW 2603   2.257   2.085   2.922  0.5849  0.2085 -0.4434
  660SOL    HW1 2604   2.226   1.991   2.905  2.1978 -0.1883 -1.3915
  660SOL    HW2 2605   2.187   2.149   2.890 -0.8730 -0.6295  0.8863
  661SOL     OW 2606   4.122   1.215   2.941  0.4057 -0.0409  0.0977
  661SOL    HW1 2607   4.187   1.282   2.906 -0.1302 -0.0911 -1.0159
  661SOL    HW2 2608   4.070   1.176   2.866 -1.4522  0.5415  0.9975
  662SOL     OW 2609   3.438   2.687   2.815 -0.2781  0.8314 -0.0147
  662SOL    HW1 2610   3.502   2.618   2.781 -0.7059  0.8654 -0.9104
  662SOL    HW2 2611   3.371   2.709   2.744 -1.2628  0.8378  0.8738
  663SOL     OW 2612   0.809   4.081   4.287 -0.6959 -0.0311  0.6140
  663SOL    HW1 2613   0.769   4.150   4.347  0.1061  1.3414 -0.3614
  663SOL    HW2 2614   0.890   4.042   4.331  2.3605  3.8514 -0.9531
  664SOL     OW 2615   1.414   4.208   4.143  0.0358 -0.0066 -0.1500
  664SOL    HW1 2616   1.499   4.181   4.188  1.3387  1.4532 -1.5967
  664SOL    HW2 2617   1.369   4.127   4.105 -0.8758 -1.2295  3.1691
  665SOL     OW 2618   0.486   1.604   1.814  0.2255  0.4784  0.4254
  665SOL    HW1 2619   0.506   1.653   1.730 -2.1225 -0.0125 -0.4741
  665SOL    HW2 2620   0.463   1.669   1.886 -1.4017  0.8061 -0.3531
  666SOL     OW 2621   4.204   3.385   0.782  0.5282  0.1022 -0.1858
  666SOL    HW1 2622   4.234   3.356   0.691 -0.4243  0.5330 -0.6610
  666SOL    HW2 2623   4.113   3.426   0.775  0.3985  0.0498  0.9848
  667SOL     OW 2624   2.673   3.738   0.905  0.1272 -0.0557 -0.3378
  667SOL    HW1 2625   2.573   3.743   0.907  0.1225 -0.1890 -0.2165
  667SOL    HW2 2626   2.710   3.770   0.992  0.2258  0.7513 -0.6666
  668SOL     OW 2627   1.283   1.374   2.886 -0.2618 -0.1939 -0.1149
  668SOL    HW1 2628   1.273   1.438   2.961  0.3365 -0.6197  0.3365
  668SOL    HW2 2629   1.298   1.282   2.922 -0.1072 -0.4253 -0.7542
  669SOL     OW 2630   3.951   0.975   1.132  0.0697  0.0451  0.5009
  669SOL    HW1 2631   3.984   1.014   1.218 -0.9570  2.1422  0.0079
  669SOL    HW2 2632   4.010   1.006   1.057 -0.8550  0.8748  0.0829
  670SOL     OW 2633   1.024   4.536   3.616 -0.3561 -0.7451  0.5874
  670SOL    HW1 2634   1.068   4.492   3.695 -0.1345 -3.0772 -0.7601
  670SOL    HW2 2635   0.968   4.469   3.568 -1.1728  0.8604 -0.7800
  671SOL     OW 2636   2.296   3.566   4.286  0.2584 -0.3885  0.0878
  671SOL    HW1 2637   2.322   3.491   4.347  0.2493 -0.7237 -0.3116
  671SOL    HW2 2638   2.238   3.530   4.213  1.2528 -0.2165 -0.8026
  672SOL     OW 2639   3.712   0.531   4.331  0.0298  0.0935 -0.2762
  672SOL    HW1 2640   3.707   0.586   4.248 -1.6938  1.1583  0.4811
  672SOL    HW2 2641   3.746   0.587   4.406  0.9150 -0.6717 -0.0898
  673SOL     OW 2642   2.364   1.012   2.705 -0.3040  0.2493  0.5484
  673SOL    HW1 2643   2.380   1.104   2.743  1.4227 -0.2706  1.1640
  673SOL    HW2 2644   2.409   1.005   2.616 -1.5629  0.4066 -0.1153
  674SOL     OW 2645   2.757   2.618   4.842 -0.0366 -0.0696  0.5853
  674SOL    HW1 2646   2.856   2.613   4.824 -0.1507 -1.2416  0.1610
  674SOL    HW2 2647   2.720   2.525   4.844 -1.5334  0.4088 -1.6281
  675SOL     OW 2648   0.150   3.646   1.705  0.3982 -0.3328  0.0151
  675SOL    HW1 2649   0.136   3.626   1.608  2.0196  0.2717 -0.3871
  675SOL    HW2 2650   0.198   3.734   1.714 -1.5595  0.6780  1.4697
  676SOL     OW 2651   4.345   0.406   4.185 -0.0605  0.6641  0.8174
  676SOL    HW1 2652   4.253   0.397   4.223 -0.5850  1.1826 -0.2632
  676SOL    HW2 2653   4.402   0.459   4.247 -1.0314  1.8912  0.7021
  677SOL     OW 2654   0.610   0.358   0.619 -0.3097 -0.0361 -0.2093
  677SOL    HW1 2655   0.617   0.426   0.547 -1.0152  0.0295 -0.2170
  677SOL    HW2 2656   0.671   0.383   0.694 -0.5858  0.6174 -0.2002
  678SOL     OW 2657   4.078   0.304   4.891  1.0381  0.5227 -0.1177
  678SOL    HW1 2658   4.029   0.313   4.978  1.8907  0.8155  0.3456
  678SOL    HW2 2659   4.085   0.207   4.867  0.2357  0.4774 -0.1994
  679SOL     OW 2660   4.066   4.097   0.978  0.0182 -0.4596 -0.1190
  679SOL    HW1 2661   4.157   4.069   0.947 -0.2146 -2.2123  0.6251
  679SOL    HW2 2662   3.997   4.060   0.916 -0.1908  1.4338 -1.0665
  680SOL     OW 2663   3.926   4.730   1.862 -0.0044 -0.0611 -0.1256
  680SOL    HW1 2664   3.841   4.682   1.887 -1.2974  1.4659 -1.3740
  680SOL    HW2 2665   3.937   4.726   1.762  0.3997  1.3365 -0.1458
  681SOL     OW 2666   0.518   3.074   2.932 -0.7158  0.4883  0.4243
  681SOL    HW1 2667   0.540   3.148   2.868 -1.0576 -0.0212 -0.2965
  681SOL    HW2 2668   0.544   3.101   3.024 -1.9320  1.9867  0.3577
  682SOL     OW 2669   4.037   1.772   2.511  1.1400 -0.1446  0.5008
  682SOL    HW1 2670   4.006   1.867   2.498  0.4631 -0.5063 -0.6451
  682SOL    HW2 2671   4.134   1.766   2.491  1.0060  0.1478 -0.2621
  683SOL     OW 2672   4.158   1.251   1.551 -0.0856 -0.4421 -0.4094
  683SOL    HW1 2673   4.067   1.275   1.516  0.0370  1.4294  0.4367
  683SOL    HW2 2674   4.201   1.332   1.589  1.7164 -1.4372 -0.2345
  684SOL     OW 2675   4.723   2.616   3.414  0.2424 -0.0278  0.0450
  684SOL    HW1 2676   4.656   2.684   3.442  1.5920  2.0637 -1.5174
  684SOL    HW2 2677   4.808   2.629   3.466  0.2805 -1.0622  0.2789
  685SOL     OW 2678   1.651   1.286   3.811 -0.4646  0.5657  0.3816
  685SOL    HW1 2679   1.693   1.330   3.732  0.0720  2.4942  1.6760
  685SOL    HW2 2680   1.718   1.283   3.886 -1.4161  0.0948  1.2293
  686SOL     OW 2681   0.243   3.540   4.068 -0.5547  0.2284  0.2682
  686SOL    HW1 2682   0.320   3.560   4.129 -1.5829 -0.3570  1.8127
  686SOL    HW2 2683   0.162   3.589   4.100 -1.3569 -0.8820 -0.0380
  687SOL     OW 2684   2.620   4.435   4.755  0.2987 -0.3160  0.3638
  687SOL    HW1 2685   2.703   4.465   4.802 -0.7482 -0.4783  2.4251
  687SOL    HW2 2686   2.576   4.514   4.713  1.9276 -0.3635 -1.5876
  688SOL     OW 2687   0.607   1.960   0.428  0.1544  0.3966  0.1114
  688SOL    HW1 2688   0.642   2.051   0.449 -0.0535  0.5494 -0.1917
  688SOL    HW2 2689   0.507   1.963   0.423  0.1652  0.2466 -0.3083
  689SOL     OW 2690   2.653   4.046   1.604 -0.4491  0.0522 -0.0356
  689SOL    HW1 2691   2.654   3.991   1.520 -0.8266 -0.2805  0.1739
  689SOL    HW2 2692   2.649   4.143   1.580  0.1670 -0.0082 -0.4092
  690SOL     OW 2693   4.288   4.219   0.447 -0.2848  0.5042  0.1453
  690SOL    HW1 2694   4.265   4.270   0.364  0.9796 -1.1957 -1.3160
  690SOL    HW2 2695   4.346   4.276   0.506  2.3433  0.3884 -2.1287
  691SOL     OW 2696   1.277   1.861   2.656 -0.1980 -0.1936  0.0652
  691SOL    HW1 2697   1.232   1.910   2.581 -0.6636  0.1875  0.5895
  691SOL    HW2 2698   1.368   1.831   2.626  0.2969  1.4184 -0.1116
  692SOL     OW 2699   4.661   4.497   1.310 -0.2858  0.3006  0.2580
  692SOL    HW1 2700   4.744   4.453   1.276 -0.9708 -0.8398  0.0410
  692SOL    HW2 2701   4.678   4.596   1.318  0.9970  0.1296 -0.0365
  693SOL     OW 2702   4.836   2.473   0.800  0.1593 -0.1711 -0.1486
  693SOL    HW1 2703   4.811   2.570   0.800 -1.0530 -0.4639 -0.7124
  693SOL    HW2 2704   4.755   2.418   0.819  0.8945 -1.0750  0.4491
  694SOL     OW 2705   4.640   2.506   1.347  0.0831 -0.2582  0.0496
  694SOL    HW1 2706   4.672   2.548   1.432 -0.4405 -1.3017  0.7772
  694SOL    HW2 2707   4.570   2.563   1.306  2.3001  1.7423 -1.2234
  695SOL     OW 2708   1.992   4.049   1.440  0.5956  0.0601  0.5568
  695SOL    HW1 2709   1.938   4.133   1.436  0.1044 -0.3130 -1.3623
  695SOL    HW2 2710   2.005   4.013   1.348  2.4966 -0.9177  1.1607
  696SOL     OW 2711   3.927   1.450   1.545  0.6941  0.6614 -0.0302
  696SOL    HW1 2712   3.845   1.394   1.535  0.6554  0.8824 -0.9845
  696SOL    HW2 2713   3.915   1.515   1.620  0.9485 -0.9624  1.4849
  697SOL     OW 2714   2.823   3.896   1.774  0.3550  0.0061 -0.3883
  697SOL    HW1 2715   2.745   3.934   1.723 -0.0209 -0.7566 -0.3995
  697SOL    HW2 2716   2.792   3.868   1.865  0.5775 -0.4428 -0.4484
  698SOL     OW 2717   1.498   2.288   0.413 -0.2347  0.7298  0.8487
  698SOL    HW1 2718   1.426   2.344   0.372  0.7524  0.0108 -2.1612
  698SOL    HW2 2719   1.472   2.191   0.410  0.6008  0.5070  0.1791
  699SOL     OW 2720   3.577   1.424   2.626  0.0860 -0.0721 -0.1215
  699SOL    HW1 2721   3.643   1.407   2.553 -1.3367 -1.1488 -1.1952
  699SOL    HW2 2722   3.622   1.477   2.699  1.3967  1.5193 -1.9739
  700SOL     OW 2723   1.913   4.278   1.113 -0.1481 -0.0644 -0.2334
  700SOL    HW1 2724   1.862   4.317   1.190 -2.0482  0.3353 -1.6478
  700SOL    HW2 2725   1.966   4.199   1.146 -0.0930  0.7072  1.6713
  701SOL     OW 2726   2.564   3.796   3.880  0.2383  0.0138  0.4660
  701SOL    HW1 2727   2.513   3.871   3.838 -0.3684 -0.3051  0.6353
  701SOL    HW2 2728   2.613   3.830   3.960 -0.7970  0.0290  1.1027
  702SOL     OW 2729   2.062   3.817   0.088 -0.0932  0.2311  0.6331
  702SOL    HW1 2730   1.972   3.851   0.118 -0.9866 -1.5558  0.1000
  702SOL    HW2 2731   2.061   3.804  -0.011  0.7816  0.2332  0.6195
  703SOL     OW 2732   4.805   2.299   1.282 -0.2740  0.1254 -0.2403
  703SOL    HW1 2733   4.896   2.336   1.265  0.2894 -0.1008  2.0634
  703SOL    HW2 2734   4.740   2.373   1.297  0.0254  0.2581  0.4169
  704SOL     OW 2735   1.414   3.206   4.195 -0.0802 -0.1805 -0.6221
  704SOL    HW1 2736   1.320   3.229   4.221 -0.0929  1.5222 -1.9931
  704SOL    HW2 2737   1.476   3.229   4.270 -0.7047 -1.2010  0.2448
  705SOL     OW 2738   1.940   4.579   2.320 -0.3454 -0.4887  0.3669
  705SOL    HW1 2739   1.915   4.500   2.264 -0.5137  1.0765 -1.8991
  705SOL    HW2 2740   1.875   4.653   2.305  1.3626  1.0519  0.2267
  706SOL     OW 2741   0.121   3.077   4.398  0.2329  0.1838 -0.0742
  706SOL    HW1 2742   0.182   2.998   4.405  0.1250 -0.2143 -2.5600
  706SOL    HW2 2743   0.139   3.124   4.312 -2.3463  0.5642 -0.4682
  707SOL     OW 2744   3.273   0.896   2.757 -0.9984 -0.0336 -0.4500
  707SOL    HW1 2745   3.315   0.892   2.667  2.2557  2.4444  0.7509
  707SOL    HW2 2746   3.202   0.967   2.758  1.0824  2.1546 -0.4322
  708SOL     OW 2747   0.789   0.150   3.540 -0.6614 -0.5076 -0.5435
  708SOL    HW1 2748   0.767   0.129   3.635 -1.0430 -2.1621 -0.9668
  708SOL    HW2 2749   0.884   0.180   3.534 -0.7039 -0.1703  0.3933
  709SOL     OW 2750   2.995   2.357   4.155  0.0975 -0.4528  0.2615
  709SOL    HW1 2751   2.915   2.304   4.183  1.0489 -1.0533  1.9820
  709SOL    HW2 2752   3.055   2.372   4.233 -0.5120  4.0064  0.1789
  710SOL     OW 2753   4.706   4.657   0.053 -0.2760  0.0273 -0.4864
  710SOL    HW1 2754   4.799   4.628   0.031  0.1219  1.2236 -0.4886
  710SOL    HW2 2755   4.658   4.683  -0.031 -1.0332 -1.6902 -0.6202
  711SOL     OW 2756   3.324   4.151   1.363 -0.4965 -1.1777 -0.7128
  711SOL    HW1 2757   3.255   4.183   1.299 -0.9548 -0.6228  0.0417
  711SOL    HW2 2758   3.288   4.072   1.414  0.0405 -1.9194 -1.4468
  712SOL     OW 2759   2.017   0.656   1.957 -0.3433 -0.1350 -0.2667
  712SOL    HW1 2760   1.962   0.636   1.876 -1.0813 -0.7400  0.3647
  712SOL    HW2 2761   1.988   0.743   1.996 -0.4086 -0.1437 -0.2963
  713SOL     OW 2762   1.973   0.114   3.484 -0.0100 -0.3302  0.1565
  713SOL    HW1 2763   2.057   0.062   3.498  0.0418 -0.3675 -0.2766
  713SOL    HW2 2764   1.996   0.206   3.452 -0.1375 -0.4207 -0.2060
  714SOL     OW 2765   0.655   4.848   0.977  0.0355 -0.6700 -0.1868
  714SOL    HW1 2766   0.697   4.803   0.898 -0.4980 -1.6328  0.0607
  714SOL    HW2 2767   0.668   4.791   1.058 -0.4623 -0.2687  0.1796
  715SOL     OW 2768   0.663   1.447   2.305 -0.2108  0.0538 -0.1034
  715SOL    HW1 2769   0.758   1.417   2.318 -0.3677 -0.9158 -1.0855
  715SOL    HW2 2770   0.602   1.369   2.314 -0.9557  0.7222  0.7816
  716SOL     OW 2771   3.274   2.794   1.831  0.2936  0.3539  0.0626
  716SOL    HW1 2772   3.219   2.724   1.786 -1.8737  1.6534  0.5102
  716SOL    HW2 2773   3.293   2.868   1.766  1.9527 -0.2661 -0.2073
  717SOL     OW 2774   1.365   0.819   2.187 -0.6807 -0.1132  0.8724
  717SOL    HW1 2775   1.290   0.754   2.201 -0.2686 -1.3608 -1.9275
  717SOL    HW2 2776   1.450   0.769   2.172 -0.3679  0.9702 -1.4600
  718SOL     OW 2777   2.708   1.083   1.696 -0.0317  0.2818  0.3816
  718SOL    HW1 2778   2.624   1.085   1.642  0.0868 -2.1242 -0.0036
  718SOL    HW2 2779   2.777   1.029   1.649  1.2377  0.9312  1.4103
  719SOL     OW 2780   0.191   4.869   4.473  0.2134 -0.2331 -0.2362
  719SOL    HW1 2781   0.257   4.853   4.400 -0.8161 -2.0750 -0.8284
  719SOL    HW2 2782   0.100   4.881   4.434  0.0519  1.5746  0.6087
  720SOL     OW 2783   2.013   0.981   3.782  0.4098  0.1244  0.1531
  720SOL    HW1 2784   2.078   1.008   3.711 -0.1959  2.8095  0.5290
  720SOL    HW2 2785   2.058   0.920   3.847  1.7078 -0.2891 -1.0786
  721SOL     OW 2786   4.410   0.377   1.498 -0.1107 -0.3080 -0.1509
  721SOL    HW1 2787   4.481   0.398   1.565  1.0551  2.2209 -1.9817
  721SOL    HW2 2788   4.410   0.280   1.477  1.5104 -0.6632  1.3168
  722SOL     OW 2789   4.773   3.220   4.238 -0.0391 -0.1486  0.0551
  722SOL    HW1 2790   4.704   3.152   4.263  0.7595 -1.0337 -0.0509
  722SOL    HW2 2791   4.756   3.253   4.145 -1.7401  1.5084  0.9149
  723SOL     OW 2792   0.987   0.376   1.385 -0.1378 -0.4092 -0.0177
  723SOL    HW1 2793   1.036   0.414   1.463 -0.9932  0.9534 -0.1050
  723SOL    HW2 2794   1.039   0.393   1.301 -0.3768  0.3504 -0.0201
  724SOL     OW 2795   0.645   3.560   4.504  0.3509  0.1530  0.7806
  724SOL    HW1 2796   0.737   3.544   4.467 -0.8582  1.0354 -3.1315
  724SOL    HW2 2797   0.625   3.658   4.502 -1.6029 -0.1923 -1.3785
  725SOL     OW 2798   1.070   2.722   1.190 -0.5230  0.2667 -0.1160
  725SOL    HW1 2799   1.048   2.819   1.175  0.1583  0.2284 -1.5230
  725SOL    HW2 2800   0.994   2.678   1.238 -1.3785  1.2296 -0.5363
  726SOL     OW 2801   4.326   4.751   3.206  0.7733 -0.4741  0.3267
  726SOL    HW1 2802   4.309   4.849   3.201  0.7490 -0.4227  1.2313
  726SOL    HW2 2803   4.347   4.716   3.115 -0.3088  0.1647 -0.1888
  727SOL     OW 2804   0.269   2.247   4.055 -0.0151 -0.4995  0.3412
  727SOL    HW1 2805   0.228   2.338   4.065 -1.1613 -0.7936 -1.1957
  727SOL    HW2 2806   0.196   2.179   4.048  0.7252 -1.1961 -1.2440
  728SOL     OW 2807   1.754   1.963   3.847  0.5818 -0.0033  0.1844
  728SOL    HW1 2808   1.717   2.038   3.792 -0.7793 -1.4482 -0.9508
  728SOL    HW2 2809   1.839   1.993   3.890  1.0865  1.5804 -1.7505
  729SOL     OW 2810   4.467   0.833   1.165 -0.5236 -0.2815 -0.0461
  729SOL    HW1 2811   4.400   0.892   1.210 -0.2354 -0.1104  0.1590
  729SOL    HW2 2812   4.490   0.757   1.225 -0.1944 -0.0935  0.0643
  730SOL     OW 2813   1.523   4.833   0.043 -0.2720  0.6009  0.5387
  730SOL    HW1 2814   1.490   4.759  -0.016  0.0272  0.4085  0.6081
  730SOL    HW2 2815   1.568   4.794   0.123 -0.1406  0.8599  0.5920
  731SOL     OW 2816   0.545   4.506   2.488  0.2212 -0.6687 -0.4589
  731SOL    HW1 2817   0.469   4.518   2.552  0.7746  0.1540  0.0709
  731SOL    HW2 2818   0.605   4.433   2.521 -0.0656 -0.9791 -0.6152
  732SOL     OW 2819   3.613   0.401   0.466  0.0410 -0.0582 -0.1843
  732SOL    HW1 2820   3.520   0.415   0.500  0.1760 -1.1290  0.6796
  732SOL    HW2 2821   3.643   0.483   0.416 -0.9076  0.7806  0.5751
  733SOL     OW 2822   4.234   4.445   0.282  0.6802  0.3722  0.0523
  733SOL    HW1 2823   4.248   4.536   0.319  0.6884  0.0442  0.8709
  733SOL    HW2 2824   4.290   4.433   0.200 -0.6166  1.6854 -1.0656
  734SOL     OW 2825   3.367   1.254   0.922 -0.0572 -0.1630  1.3153
  734SOL    HW1 2826   3.363   1.310   0.839  1.4633 -2.1424 -0.1751
  734SOL    HW2 2827   3.362   1.314   1.003  2.4507  2.2330 -0.1572
  735SOL     OW 2828   2.668   4.737   2.299  0.4678  0.1733  0.5730
  735SOL    HW1 2829   2.662   4.752   2.200 -1.1037  2.5976  0.9340
  735SOL    HW2 2830   2.612   4.659   2.325 -0.2259  0.3619 -0.3197
  736SOL     OW 2831   2.679   3.804   1.973 -0.2239  0.1386  0.0525
  736SOL    HW1 2832   2.590   3.850   1.971 -0.5373 -0.4020  0.8271
  736SOL    HW2 2833   2.676   3.731   2.041  1.0512  0.5907  0.6148
  737SOL     OW 2834   3.049   3.129   1.207 -0.3311  0.0856 -0.6754
  737SOL    HW1 2835   3.069   3.207   1.148 -1.2569  0.5847 -0.3527
  737SOL    HW2 2836   2.960   3.143   1.251  0.1474 -0.4846  0.4993
  738SOL     OW 2837   1.428   2.753   1.460 -0.3506 -0.4859 -0.1383
  738SOL    HW1 2838   1.519   2.729   1.493 -0.4507 -1.2154 -0.3861
  738SOL    HW2 2839   1.359   2.718   1.523 -0.4504  1.0466  0.6686
  739SOL     OW 2840   3.882   1.618   1.146  0.0253 -0.4266 -0.0960
  739SOL    HW1 2841   3.956   1.560   1.181 -0.6148 -1.8329 -0.9549
  739SOL    HW2 2842   3.852   1.681   1.217  0.1270 -1.7877  1.1953
  740SOL     OW 2843   0.346   2.642   1.954  0.6192  0.9399  0.4787
  740SOL    HW1 2844   0.317   2.738   1.945 -0.0835  0.6343 -0.7655
  740SOL    HW2 2845   0.304   2.603   2.036  1.5258  1.8967  1.4233
  741SOL     OW 2846   0.612   2.943   0.274 -0.3978 -0.0252  0.7304
  741SOL    HW1 2847   0.693   2.981   0.319 -1.5560  1.2218  1.8520
  741SOL    HW2 2848   0.628   2.939   0.176  2.5679 -3.6582  1.1138
  742SOL     OW 2849   0.288   0.675   2.395  0.1350  0.0256  0.4546
  742SOL    HW1 2850   0.192   0.647   2.400 -0.3345  1.2666 -0.9110
  742SOL    HW2 2851   0.304   0.723   2.309  2.0568 -0.3880  0.5398
  743SOL     OW 2852   1.790   0.341   1.503 -0.3916  0.4712  0.2458
  743SOL    HW1 2853   1.827   0.249   1.510  1.3315  1.2643  3.0420
  743SOL    HW2 2854   1.861   0.404   1.473 -1.1020  1.1609 -0.0352
  744SOL     OW 2855   3.527   3.234   0.940  0.2315  0.5084 -0.5438
  744SOL    HW1 2856   3.438   3.280   0.938  0.8899  1.8079 -1.1560
  744SOL    HW2 2857   3.539   3.182   0.856 -0.6592 -1.1463  0.2958
  745SOL     OW 2858   2.782   3.797   1.187  0.4189 -0.8492 -0.3295
  745SOL    HW1 2859   2.794   3.731   1.261  1.2737  0.4474  0.7320
  745SOL    HW2 2860   2.735   3.878   1.222  1.5126  0.1062 -1.0174
  746SOL     OW 2861   3.921   1.235   1.835 -0.3915  0.5323 -0.2085
  746SOL    HW1 2862   3.977   1.152   1.836  1.4095  1.6787 -0.7458
  746SOL    HW2 2863   3.845   1.224   1.772  0.5740 -0.2628 -1.2642
  747SOL     OW 2864   1.308   0.718   2.608 -0.1075  0.0980  0.7056
  747SOL    HW1 2865   1.388   0.687   2.556  0.1798 -0.0098  1.2055
  747SOL    HW2 2866   1.282   0.648   2.673  0.1966  0.6632  1.4509
  748SOL     OW 2867   4.215   4.541   0.888 -0.3200  0.2329 -0.0816
  748SOL    HW1 2868   4.152   4.482   0.939 -0.4757  0.4541 -0.0146
  748SOL    HW2 2869   4.173   4.631   0.876 -0.1651  0.2680 -0.3534
  749SOL     OW 2870   4.138   2.680   2.608 -0.1696  0.8739 -0.0041
  749SOL    HW1 2871   4.049   2.722   2.588 -1.0952 -1.1733 -0.4987
  749SOL    HW2 2872   4.173   2.638   2.524  2.9305  4.3392 -0.7178
  750SOL     OW 2873   1.444   4.681   3.042  0.0443 -0.1310 -0.2570
  750SOL    HW1 2874   1.530   4.714   3.004  0.2009  0.7898  0.8718
  750SOL    HW2 2875   1.410   4.605   2.985  1.9262 -0.9785 -0.3167
  751SOL     OW 2876   4.558   4.149   3.936  0.3482  0.6992 -0.0136
  751SOL    HW1 2877   4.627   4.088   3.974  0.0060 -0.5206 -1.2792
  751SOL    HW2 2878   4.594   4.194   3.854 -0.2690  0.2271 -0.5543
  752SOL     OW 2879   0.413   3.242   0.093  0.9213 -0.4766 -0.3768
  752SOL    HW1 2880   0.366   3.160   0.125 -0.5377  1.2273  2.1999
  752SOL    HW2 2881   0.483   3.268   0.160  1.9445 -0.0663 -1.5804
  753SOL     OW 2882   1.206   4.121   1.214  0.8765 -0.2566 -0.4485
  753SOL    HW1 2883   1.258   4.107   1.298 -0.5797  1.9816  0.9474
  753SOL    HW2 2884   1.175   4.032   1.179  1.0609 -1.2423  1.7036
  754SOL     OW 2885   1.200   0.020   1.296  0.2309 -0.1117 -0.4733
  754SOL    HW1 2886   1.138  -0.036   1.241 -1.0727 -0.0449  0.8493
  754SOL    HW2 2887   1.258   0.075   1.236 -0.2703 -0.9575 -1.7697
  755SOL     OW 2888   4.521   2.911   3.762  0.4389  0.1877  0.2355
  755SOL    HW1 2889   4.429   2.949   3.755  0.1120 -0.1186  2.2815
  755SOL    HW2 2890   4.521   2.815   3.734  0.0547  0.0921  0.5591
  756SOL     OW 2891   0.956   1.392   1.104  0.0472 -0.1890  0.6178
  756SOL    HW1 2892   0.993   1.300   1.115 -0.8782 -0.4749  1.4072
  756SOL    HW2 2893   1.019   1.446   1.047  1.3757 -0.8286  1.4256
  757SOL     OW 2894   4.498   3.966   1.232 -0.7041 -0.2651 -0.4577
  757SOL    HW1 2895   4.478   4.041   1.169 -1.3642  0.0050  0.0569
  757SOL    HW2 2896   4.473   3.879   1.190 -0.7199 -0.1226 -0.7423
  758SOL     OW 2897   1.506   3.461   1.881  0.2585  0.8016  0.2493
  758SOL    HW1 2898   1.457   3.489   1.963  0.1339 -0.1261  0.5085
  758SOL    HW2 2899   1.563   3.381   1.901  0.1958  0.5360 -0.5711
  759SOL     OW 2900   4.460   4.719   4.700  0.1806 -0.3422  0.2463
  759SOL    HW1 2901   4.554   4.729   4.669 -0.4701 -0.2497 -1.8276
  759SOL    HW2 2902   4.435   4.622   4.702 -0.2683 -0.2690 -1.1412
  760SOL     OW 2903   1.715   1.361   3.544  0.2896 -0.0073  0.6300
  760SOL    HW1 2904   1.729   1.435   3.479 -0.0859 -0.7605 -0.3310
  760SOL    HW2 2905   1.794   1.300   3.544  1.1937  1.0780  2.3952
  761SOL     OW 2906   1.606   3.642   2.232 -0.0310  0.7089 -0.0142
  761SOL    HW1 2907   1.602   3.733   2.190 -1.0606 -0.2686 -2.2162
  761SOL    HW2 2908   1.668   3.584   2.180 -0.4880 -0.2438  0.4802
  762SOL     OW 2909   0.159   1.998   4.475 -0.1908 -0.1925  0.1235
  762SOL    HW1 2910   0.225   1.964   4.408  2.1288 -0.1098  2.1939
  762SOL    HW2 2911   0.082   1.934   4.482 -0.0211 -0.6813 -1.8607
  763SOL     OW 2912   3.110   4.263   3.504  0.3158  0.4360  0.4092
  763SOL    HW1 2913   3.096   4.317   3.587  0.7672  0.1311  0.6867
  763SOL    HW2 2914   3.028   4.268   3.447  0.4934  1.7556  0.2269
  764SOL     OW 2915   1.504   2.025   1.606  0.0023 -0.1886 -0.1284
  764SOL    HW1 2916   1.405   2.033   1.614  0.1216  0.5216  0.8747
  764SOL    HW2 2917   1.538   1.962   1.676  0.4811  1.4853  1.2190
  765SOL     OW 2918   4.687   4.589   0.709  0.2300 -0.2730 -0.4458
  765SOL    HW1 2919   4.777   4.609   0.670 -1.0379  3.4981 -1.8955
  765SOL    HW2 2920   4.683   4.626   0.802  0.5697 -1.7197  0.1678
  766SOL     OW 2921   0.169   0.249   0.464  0.2527 -0.0541  0.2896
  766SOL    HW1 2922   0.072   0.253   0.488  0.7227 -0.4869  2.4788
  766SOL    HW2 2923   0.199   0.154   0.459  1.0236  0.0720  1.8516
  767SOL     OW 2924   0.267   4.397   4.665  0.6352 -0.2314 -0.4161
  767SOL    HW1 2925   0.186   4.343   4.689  1.2578 -0.2861  1.8335
  767SOL    HW2 2926   0.297   4.373   4.573 -0.5990 -1.8438 -0.4505
  768SOL     OW 2927   0.408   2.108   1.928 -0.1513  0.2852 -0.0064
  768SOL    HW1 2928   0.315   2.144   1.921  0.2040  1.0881 -0.8436
  768SOL    HW2 2929   0.461   2.136   1.848  1.1521  0.8649  1.0102
  769SOL     OW 2930   4.536   4.543   2.495  0.5170 -0.1421 -0.0107
  769SOL    HW1 2931   4.518   4.568   2.400  1.0846  2.1744  0.4381
  769SOL    HW2 2932   4.455   4.563   2.550  0.2940 -1.2033  0.0760
  770SOL     OW 2933   3.691   2.665   1.852 -0.0195  0.7207  0.2254
  770SOL    HW1 2934   3.659   2.754   1.883 -1.3176  0.0520  0.9038
  770SOL    HW2 2935   3.771   2.638   1.906 -0.5755  0.8000  1.1062
  771SOL     OW 2936   0.894   4.172   1.489  0.5303 -0.3112 -0.6609
  771SOL    HW1 2937   0.877   4.186   1.587 -0.2057 -0.6411 -0.7311
  771SOL    HW2 2938   0.954   4.094   1.477  1.2297  0.1822 -0.4468
  772SOL     OW 2939   1.352   2.050   4.245 -0.0454 -0.1672  0.0254
  772SOL    HW1 2940   1.411   2.035   4.166 -0.1410 -1.2683  0.1441
  772SOL    HW2 2941   1.334   1.963   4.291 -0.9453  0.2855  0.5790
  773SOL     OW 2942   2.735   3.949   4.041 -0.3940 -0.2752 -0.2986
  773SOL    HW1 2943   2.716   3.970   4.138 -0.7252  0.6973 -0.5602
  773SOL    HW2 2944   2.797   3.871   4.036 -0.4574 -0.4131  0.7001
  774SOL     OW 2945   2.599   3.625   2.950  0.0374  0.1816  0.5604
  774SOL    HW1 2946   2.533   3.563   2.991 -0.8830  0.8141  0.0859
  774SOL    HW2 2947   2.681   3.630   3.007 -1.2859  1.2370  2.4896
  775SOL     OW 2948   4.367   2.195   4.573  0.6285 -0.3778  1.0030
  775SOL    HW1 2949   4.390   2.216   4.478 -0.9272  1.2967  0.9463
  775SOL    HW2 2950   4.451   2.173   4.623  1.5727 -0.4815 -0.5545
  776SOL     OW 2951   3.141   2.952   4.749  0.5651 -0.2538  0.4016
  776SOL    HW1 2952   3.194   2.938   4.833 -0.0024  0.3992  0.8800
  776SOL    HW2 2953   3.203   2.961   4.671  1.0666 -2.5149  0.4689
  777SOL     OW 2954   3.295   2.069   3.561  0.0597 -0.0459 -0.3557
  777SOL    HW1 2955   3.283   2.050   3.464 -1.4797 -1.8955  0.1275
  777SOL    HW2 2956   3.269   2.164   3.580 -1.5936 -0.2403 -1.4622
  778SOL     OW 2957   4.630   1.985   3.911 -0.0338 -0.1729 -0.0732
  778SOL    HW1 2958   4.672   1.907   3.864 -0.6135 -1.0753  0.8380
  778SOL    HW2 2959   4.632   1.968   4.010  1.6121  1.8906  0.3021
  779SOL     OW 2960   3.404   3.405   1.244 -0.5047  0.0812  0.0354
  779SOL    HW1 2961   3.481   3.444   1.194  0.3396 -1.1171  0.3645
  779SOL    HW2 2962   3.403   3.306   1.232 -2.0900  0.0834 -0.0841
  780SOL     OW 2963   4.007   0.699   1.166 -0.7625  0.2787 -0.3955
  780SOL    HW1 2964   3.979   0.791   1.139 -1.5115  0.2707  0.3147
  780SOL    HW2 2965   4.081   0.704   1.232  0.2806  0.3199 -1.5194
  781SOL     OW 2966   0.136   3.253   4.181 -0.0504  0.0204  0.0529
  781SOL    HW1 2967   0.166   3.236   4.087  0.5295 -1.1376  0.4197
  781SOL    HW2 2968   0.040   3.281   4.181 -0.0629  0.0051 -0.8892
  782SOL     OW 2969   0.363   4.653   0.632 -0.0301 -0.3663 -0.9063
  782SOL    HW1 2970   0.354   4.747   0.598  2.5230  0.0886 -0.5358
  782SOL    HW2 2971   0.402   4.596   0.560  0.6051 -0.5908 -0.3911
  783SOL     OW 2972   1.268   3.139   1.568  0.3802  0.1367 -0.5076
  783SOL    HW1 2973   1.280   3.219   1.509 -0.3453 -0.2723 -1.2399
  783SOL    HW2 2974   1.263   3.056   1.512  0.9871 -0.4175  0.2290
  784SOL     OW 2975   4.204   2.618   2.274  0.5630  0.3279 -0.0091
  784SOL    HW1 2976   4.115   2.645   2.236  0.1497 -0.4682  0.3604
  784SOL    HW2 2977   4.275   2.679   2.240 -0.1770  1.1759 -0.0516
  785SOL     OW 2978   3.063   3.197   0.773  0.2052  0.1832 -0.0516
  785SOL    HW1 2979   3.155   3.227   0.799  0.1158  0.3015  0.1304
  785SOL    HW2 2980   3.032   3.125   0.834 -0.6134  1.5035  1.1654
  786SOL     OW 2981   4.423   1.341   1.815 -0.1934  0.2609  0.0277
  786SOL    HW1 2982   4.497   1.377   1.872  0.8381  0.2872 -1.2642
  786SOL    HW2 2983   4.456   1.261   1.765 -1.3865 -0.3741  0.2268
  787SOL     OW 2984   1.992   3.094   1.447  0.6925  0.2123  0.1624
  787SOL    HW1 2985   2.024   3.137   1.531 -2.5937  1.4277  0.9092
  787SOL    HW2 2986   1.924   3.024   1.468  0.9277 -0.5391 -1.4252
  788SOL     OW 2987   0.758   1.605   3.279 -0.4199 -0.2906 -0.1540
  788SOL    HW1 2988   0.797   1.602   3.187  0.3988  0.5585  0.1420
  788SOL    HW2 2989   0.830   1.587   3.346 -0.2821  2.1975  0.4541
  789SOL     OW 2990   1.088   3.028   0.241  0.5600  0.3986 -0.2689
  789SOL    HW1 2991   1.187   3.032   0.226  0.6591 -0.8140 -0.0908
  789SOL    HW2 2992   1.065   3.074   0.326  1.1915 -0.6456  0.4908
  790SOL     OW 2993   2.788   2.246   3.741  0.0942  0.0404  0.1546
  790SOL    HW1 2994   2.770   2.339   3.774 -0.4583  0.1231 -0.3602
  790SOL    HW2 2995   2.702   2.204   3.711  0.2727 -0.7954  0.7731
  791SOL     OW 2996   2.856   4.086   4.701 -0.0010 -0.5571  0.2812
  791SOL    HW1 2997   2.921   4.104   4.775  1.0309 -1.5074 -0.3585
  791SOL    HW2 2998   2.869   4.154   4.629  1.6793 -1.8502 -0.7103
  792SOL     OW 2999   3.490   1.185   2.761  0.5213 -0.1591  0.0124
  792SOL    HW1 3000   3.547   1.106   2.739 -0.8178 -0.5095 -2.5463
  792SOL    HW2 3001   3.504   1.256   2.693 -0.4803  0.6112  0.5868
  793SOL     OW 3002   0.011   3.614   3.570 -0.1699 -0.0476  0.1839
  793SOL    HW1 3003  -0.076   3.579   3.538 -1.9980  2.0166  2.4843
  793SOL    HW2 3004   0.029   3.580   3.663  1.4761 -0.4036 -0.2332
  794SOL     OW 3005   0.746   1.841   3.635  0.5443  0.3017  0.3286
  794SOL    HW1 3006   0.832   1.893   3.631  0.9809 -0.4597 -0.5995
  794SOL    HW2 3007   0.671   1.898   3.602  0.9506  0.4981 -0.2814
  795SOL     OW 3008   3.711   3.726   1.962  0.6231  0.3991 -0.4009
  795SOL    HW1 3009   3.752   3.748   1.873  0.4896 -1.9531 -1.1081
  795SOL    HW2 3010   3.657   3.804   1.994  0.7395  1.3300 -2.3349
  796SOL     OW 3011   4.402   0.964   3.209  1.1630  0.1287  0.0868
  796SOL    HW1 3012   4.478   0.928   3.264  0.5494 -0.9129  0.2800
  796SOL    HW2 3013   4.357   0.888   3.162 -2.1346  0.0668  2.9115
  797SOL     OW 3014   3.250   0.244   4.148 -0.0309  0.2191  0.1724
  797SOL    HW1 3015   3.335   0.193   4.162 -0.4633 -0.3039  1.0325
  797SOL    HW2 3016   3.177   0.179   4.122  0.0056  0.7639 -1.3928
  798SOL     OW 3017   3.718   3.209   4.532 -0.4249 -0.4183 -0.4890
  798SOL    HW1 3018   3.759   3.125   4.569  2.0859  0.4454 -1.1633
  798SOL    HW2 3019   3.621   3.212   4.558 -0.8365 -3.8848 -1.0879
  799SOL     OW 3020   4.215   2.346   2.044 -0.2012  0.3708  0.7625
  799SOL    HW1 3021   4.210   2.446   2.041 -1.7471  0.3100 -0.1982
  799SOL    HW2 3022   4.310   2.318   2.055  0.2972  1.9455  0.7991
  800SOL     OW 3023   1.960   2.197   4.542 -0.0578  0.2949 -0.2219
  800SOL    HW1 3024   1.887   2.165   4.603  0.8335  0.4334  0.9390
  800SOL    HW2 3025   1.996   2.119   4.489  0.4874 -0.2048  0.8609
  801SOL     OW 3026   2.328   2.884   0.148  0.0106 -0.0572 -0.0294
  801SOL    HW1 3027   2.371   2.901   0.059 -0.6323  2.5274  0.0876
  801SOL    HW2 3028   2.381   2.929   0.220 -0.2950 -0.8847  0.7312
  802SOL     OW 3029   1.481   3.787   3.740  0.6028  0.2964  0.2018
  802SOL    HW1 3030   1.452   3.869   3.691  0.1227  0.7520  1.2096
  802SOL    HW2 3031   1.504   3.811   3.834  2.8410 -0.3149 -0.1407
  803SOL     OW 3032   1.864   4.351   2.148  0.0806 -0.0392 -0.1573
  803SOL    HW1 3033   1.799   4.299   2.093 -0.7128  1.2720 -0.4873
  803SOL    HW2 3034   1.943   4.293   2.168  0.1955 -0.7000 -2.2809
  804SOL     OW 3035   1.393   2.152   1.023  0.6295 -0.6967  0.2208
  804SOL    HW1 3036   1.445   2.229   1.058  0.1030 -0.5921  0.8001
  804SOL    HW2 3037   1.334   2.116   1.096 -0.0998 -0.8100 -0.4093
  805SOL     OW 3038   4.515   2.389   2.979  0.1213  0.4548 -0.0392
  805SOL    HW1 3039   4.527   2.419   3.074 -0.8495  0.4647  0.0916
  805SOL    HW2 3040   4.594   2.335   2.951 -0.5867 -1.5547  1.5697
  806SOL     OW 3041   2.508   2.861   0.734  0.4729  0.2330  0.4371
  806SOL    HW1 3042   2.565   2.935   0.769  0.7900  0.7941 -1.2223
  806SOL    HW2 3043   2.468   2.887   0.647 -0.5735 -1.0123  0.5094
  807SOL     OW 3044   0.977   3.581   1.729  0.1084  1.2407 -0.0009
  807SOL    HW1 3045   1.010   3.672   1.753  1.5349  1.1581 -1.4929
  807SOL    HW2 3046   1.052   3.516   1.734 -1.2372 -0.2711  2.7326
  808SOL     OW 3047   1.138   2.876   2.773  0.3041  0.1568 -0.4160
  808SOL    HW1 3048   1.177   2.808   2.711  0.3921 -1.9290  1.7755
  808SOL    HW2 3049   1.210   2.911   2.833 -0.4271 -1.0084  1.2376
  809SOL     OW 3050   1.717   4.692   4.559  0.1090 -0.2809  0.3293
  809SOL    HW1 3051   1.725   4.643   4.646  0.4910 -2.0141 -0.6192
  809SOL    HW2 3052   1.673   4.632   4.492  0.4695  0.7484 -0.8570
  810SOL     OW 3053   0.440   0.627   3.064  0.8445  0.3395 -0.0817
  810SOL    HW1 3054   0.384   0.690   3.010  0.0782 -0.5315 -0.3374
  810SOL    HW2 3055   0.454   0.543   3.012 -1.5599 -1.3467  1.7506
  811SOL     OW 3056   1.454   3.688   3.214 -0.0813 -0.3604 -0.1578
  811SOL    HW1 3057   1.450   3.644   3.303  0.2354  0.7189  0.4031
  811SOL    HW2 3058   1.499   3.627   3.148  0.0024 -1.0148  0.5001
  812SOL     OW 3059   3.685   2.340   2.989 -0.1844  0.1792 -0.6182
  812SOL    HW1 3060   3.608   2.400   3.012 -0.0983  0.2874 -0.6151
  812SOL    HW2 3061   3.673   2.253   3.037 -0.9005 -0.2302 -1.5140
  813SOL     OW 3062   4.492   2.497   4.451 -0.1101  0.0200  0.4206
  813SOL    HW1 3063   4.396   2.506   4.478 -0.2564  1.4493 -0.4387
  813SOL    HW2 3064   4.513   2.401   4.436 -2.2031 -0.1952 -1.9362
  814SOL     OW 3065   4.026   2.663   3.176  0.9616  0.2452  0.4404
  814SOL    HW1 3066   3.963   2.585   3.180 -1.6406  2.2487  1.0884
  814SOL    HW2 3067   3.996   2.727   3.105  2.9975  0.7597 -0.0355
  815SOL     OW 3068   1.108   4.080   0.079  0.4842  0.3979  0.1515
  815SOL    HW1 3069   1.020   4.097   0.124  0.4083  1.2288 -0.2859
  815SOL    HW2 3070   1.093   4.059  -0.018  0.7760  0.7694  0.0237
  816SOL     OW 3071   3.715   1.814   3.508 -0.3632  0.0327 -0.3367
  816SOL    HW1 3072   3.810   1.823   3.538  0.0912 -1.1780 -1.2907
  816SOL    HW2 3073   3.654   1.854   3.576  0.7574 -0.3215  0.9151
  817SOL     OW 3074   1.103   3.322   1.038  0.2295 -0.3781  0.3917
  817SOL    HW1 3075   1.185   3.379   1.027 -0.0943  0.2503  1.1373
  817SOL    HW2 3076   1.053   3.318   0.952  0.8752 -0.5111  0.0120
  818SOL     OW 3077   0.023   3.877   3.620  0.6012  0.7564 -0.2056
  818SOL    HW1 3078   0.030   3.782   3.591 -0.6720  0.7458 -0.5291
  818SOL    HW2 3079   0.111   3.923   3.605  0.9011 -0.0712 -1.1014
  819SOL     OW 3080   4.729   4.315   4.406  0.3633  0.1678 -0.0193
  819SOL    HW1 3081   4.632   4.337   4.400  0.4327  0.2373 -1.0638
  819SOL    HW2 3082   4.756   4.262   4.326  0.6956 -1.8608  1.3692
  820SOL     OW 3083   1.479   3.110   3.303  0.6622 -0.2190 -0.4753
  820SOL    HW1 3084   1.571   3.075   3.321  0.2652 -1.1392 -0.1707
  820SOL    HW2 3085   1.412   3.038   3.320 -0.2373  0.8384  0.6485
  821SOL     OW 3086   3.111   1.660   0.366  0.6343 -0.2967 -0.3918
  821SOL    HW1 3087   3.061   1.586   0.322 -3.9895  0.9438  2.0494
  821SOL    HW2 3088   3.143   1.724   0.296  0.1880 -1.9911 -2.2581
  822SOL     OW 3089   2.218   3.033   1.027  0.2644  0.2992 -0.1943
  822SOL    HW1 3090   2.207   3.067   1.121 -0.0681 -2.5672  0.9010
  822SOL    HW2 3091   2.128   3.028   0.984  0.4027  1.4839 -0.6655
  823SOL     OW 3092   4.582   2.603   0.283  0.0368 -0.4630 -0.0263
  823SOL    HW1 3093   4.624   2.592   0.193  1.4597 -0.7777  0.6409
  823SOL    HW2 3094   4.500   2.546   0.289 -0.7267  0.4155 -1.4820
  824SOL     OW 3095   4.850   0.861   2.521 -0.1816 -0.1844  0.6474
  824SOL    HW1 3096   4.834   0.820   2.431  0.0877 -1.9346  1.3551
  824SOL    HW2 3097   4.782   0.932   2.538 -1.9675 -1.6829  0.1462
  825SOL     OW 3098   2.404   3.864   3.107 -0.3410  0.5167 -0.5059
  825SOL    HW1 3099   2.467   3.849   3.032  0.1765  0.8837 -0.1515
  825SOL    HW2 3100   2.351   3.948   3.090 -0.0406  0.7412 -0.3393
  826SOL     OW 3101   1.318   2.246   3.966 -0.2604 -0.8191  0.0068
  826SOL    HW1 3102   1.234   2.264   4.017 -0.0744  2.2735 -0.5641
  826SOL    HW2 3103   1.373   2.329   3.963  2.4540 -2.5115 -0.3845
  827SOL     OW 3104   3.217   0.004   0.658  0.1808  0.3431 -0.4226
  827SOL    HW1 3105   3.317   0.001   0.653  0.2028  1.5275 -1.2388
  827SOL    HW2 3106   3.188   0.002   0.754  0.8704 -1.9455 -0.2197
  828SOL     OW 3107   0.761   2.407   1.808 -0.8299  0.3910  0.1329
  828SOL    HW1 3108   0.845   2.458   1.829  0.1608 -1.2944  0.4576
  828SOL    HW2 3109   0.717   2.380   1.893 -1.1200  0.3338 -0.0371
  829SOL     OW 3110   1.955   1.119   1.117  0.9043 -0.1520  0.1418
  829SOL    HW1 3111   1.955   1.047   1.186 -1.0992 -1.6152 -1.2793
  829SOL    HW2 3112   1.971   1.079   1.027  1.3777  1.4257 -0.5076
  830SOL     OW 3113   4.538   1.739   3.643 -0.2300 -0.2693 -0.3085
  830SOL    HW1 3114   4.628   1.756   3.683  0.3879  1.2913 -2.1995
  830SOL    HW2 3115   4.468   1.756   3.712  0.8439  0.4695  0.6520
  831SOL     OW 3116   2.307   3.454   0.585 -0.1061 -0.1961 -0.1343
  831SOL    HW1 3117   2.363   3.373   0.602  1.3261  1.1006  1.7634
  831SOL    HW2 3118   2.314   3.480   0.489  1.1432 -1.0713 -0.3032
  832SOL     OW 3119   1.853   3.984   4.314  0.2449  0.2844 -0.4692
  832SOL    HW1 3120   1.907   4.025   4.241 -0.2259  0.7472 -0.5630
  832SOL    HW2 3121   1.893   4.008   4.403  1.1322 -0.7302 -0.5805
  833SOL     OW 3122   0.666   1.606   0.763 -0.3753  0.2931 -0.2330
  833SOL    HW1 3123   0.706   1.544   0.830 -1.5551 -0.9491 -0.6449
  833SOL    HW2 3124   0.581   1.645   0.800 -0.3132  0.6707 -0.4816
  834SOL     OW 3125   1.449   4.120   0.360  0.3796  0.2565  0.1432
  834SOL    HW1 3126   1.423   4.215   0.370  0.8459  0.1396  3.3563
  834SOL    HW2 3127   1.534   4.103   0.411  0.0929 -1.9575 -0.0208
  835SOL     OW 3128   3.372   3.682   2.241  0.1828 -0.0378  0.2152
  835SOL    HW1 3129   3.351   3.762   2.297  0.7763 -0.5557  1.2203
  835SOL    HW2 3130   3.330   3.691   2.151 -0.0899  1.2080  0.4586
  836SOL     OW 3131   4.328   0.866   0.128  0.0851 -0.0422  0.5762
  836SOL    HW1 3132   4.263   0.815   0.071 -0.6130 -0.6272  1.8583
  836SOL    HW2 3133   4.417   0.822   0.124 -0.1584 -0.5358  0.5650
  837SOL     OW 3134   4.298   3.711   3.681  0.0863 -0.1256 -0.3214
  837SOL    HW1 3135   4.297   3.611   3.685  0.4396 -0.2205 -1.9472
  837SOL    HW2 3136   4.310   3.748   3.774  1.5113 -1.6127  0.1352
  838SOL     OW 3137   3.592   3.374   1.748  0.1073  0.0797  0.0712
  838SOL    HW1 3138   3.573   3.417   1.837  1.3098 -1.6836  1.2341
  838SOL    HW2 3139   3.660   3.429   1.699 -0.1796  0.7953  0.4594
  839SOL     OW 3140   0.620   2.394   3.458  0.3144  0.2512  0.1442
  839SOL    HW1 3141   0.558   2.347   3.520  1.6556 -0.3522  1.0992
  839SOL    HW2 3142   0.625   2.491   3.483 -2.2059  0.9316 -1.6215
  840SOL     OW 3143   1.000   3.658   2.662  0.1888  0.3941  0.3793
  840SOL    HW1 3144   1.037   3.731   2.719  0.8041 -0.1596  0.7035
  840SOL    HW2 3145   1.035   3.569   2.694  1.0855  0.1248 -1.2551
  841SOL     OW 3146   3.179   3.509   4.100  0.4169  0.8210 -0.0865
  841SOL    HW1 3147   3.156   3.496   4.196 -0.3714  0.1060 -0.3616
  841SOL    HW2 3148   3.110   3.464   4.043 -0.3928  3.1271 -1.0367
  842SOL     OW 3149   1.997   4.712   1.012 -0.7892 -0.0390  0.1178
  842SOL    HW1 3150   1.995   4.704   0.912  1.0218 -1.4076  0.1365
  842SOL    HW2 3151   1.903   4.715   1.047 -1.6068 -3.2712 -1.4176
  843SOL     OW 3152   4.701   4.699   2.180  0.2987 -0.0002 -0.7823
  843SOL    HW1 3153   4.715   4.735   2.272 -2.1506  0.4482 -0.5202
  843SOL    HW2 3154   4.725   4.602   2.178 -2.0418 -0.7149  1.0941
  844SOL     OW 3155   3.976   4.372   2.277 -0.1368  0.5233 -0.5642
  844SOL    HW1 3156   3.958   4.468   2.255 -0.2488  1.1978  2.1072
  844SOL    HW2 3157   4.033   4.367   2.359 -0.5963 -1.7207 -0.3281
  845SOL     OW 3158   1.773   2.019   1.969  0.3055  0.5236  0.3829
  845SOL    HW1 3159   1.764   1.978   2.060  1.2606  1.4286  0.9050
  845SOL    HW2 3160   1.866   2.003   1.934 -0.7158 -1.8919 -1.5017
  846SOL     OW 3161   0.565   1.849   2.322 -0.0756  0.6049  0.5079
  846SOL    HW1 3162   0.474   1.870   2.357  0.4834  1.8751  1.2475
  846SOL    HW2 3163   0.623   1.816   2.396 -0.3615 -1.8676 -0.2559
  847SOL     OW 3164   1.297   2.900   4.496  0.6565  0.0050  0.7621
  847SOL    HW1 3165   1.389   2.900   4.535  1.1766  3.0338 -0.2034
  847SOL    HW2 3166   1.297   2.851   4.409  1.5465  0.5251  0.4546
  848SOL     OW 3167   3.109   4.055   2.907  0.3877  0.1401 -0.4085
  848SOL    HW1 3168   3.112   4.071   3.006 -1.4381  1.3770 -0.4968
  848SOL    HW2 3169   3.158   4.129   2.860  0.5479 -0.0024 -0.4675
  849SOL     OW 3170   1.244   0.972   1.252  0.1657 -0.4066 -0.7872
  849SOL    HW1 3171   1.304   1.025   1.312 -0.0854 -0.5456 -0.4110
  849SOL    HW2 3172   1.249   1.009   1.159 -0.5543  0.7398 -0.3944
  850SOL     OW 3173   2.089   1.288   3.437 -0.6134 -0.4149 -0.2771
  850SOL    HW1 3174   2.093   1.319   3.532  0.1972 -0.2716 -0.3488
  850SOL    HW2 3175   2.055   1.363   3.380 -0.1215 -0.1588 -0.2384
  851SOL     OW 3176   0.225   2.635   3.638 -0.0642  0.1329 -0.0730
  851SOL    HW1 3177   0.248   2.583   3.720  0.7379  0.8788  0.1807
  851SOL    HW2 3178   0.295   2.704   3.620 -0.8593  0.8124 -0.6812
  852SOL     OW 3179   0.031   3.928   0.978 -0.0962  0.2096 -0.0788
  852SOL    HW1 3180   0.027   4.023   0.946  1.3284  0.6116  0.8352
  852SOL    HW2 3181  -0.053   3.906   1.027 -0.5749  0.8853 -0.5576
  853SOL     OW 3182   0.300   2.740   2.790 -1.0908  0.1845  0.4260
  853SOL    HW1 3183   0.356   2.821   2.777  0.0755 -0.4019  1.5737
  853SOL    HW2 3184   0.280   2.698   2.702 -0.0522  0.6269 -0.0273
  854SOL     OW 3185   1.154   0.231   3.228  0.0940  0.5388 -0.6057
  854SOL    HW1 3186   1.090   0.177   3.173  0.8615 -1.8310  0.6472
  854SOL    HW2 3187   1.104   0.301   3.279 -1.0917  0.4653 -1.6154
  855SOL     OW 3188   1.889   2.519   2.295 -0.2933  0.5267  0.3867
  855SOL    HW1 3189   1.897   2.598   2.235 -1.1826 -0.0423 -0.5224
  855SOL    HW2 3190   1.882   2.436   2.240  0.3968 -0.1790  1.3152
  856SOL     OW 3191   4.865   0.634   1.217 -0.1025  0.0506  0.0835
  856SOL    HW1 3192   4.912   0.657   1.132  0.2636  0.9331  0.5153
  856SOL    HW2 3193   4.787   0.574   1.197 -0.1185  0.3819 -0.8834
  857SOL     OW 3194   3.050   2.798   0.169 -0.1758  0.4390 -0.4483
  857SOL    HW1 3195   2.990   2.869   0.207 -0.9373  0.7366 -2.1031
  857SOL    HW2 3196   3.009   2.708   0.186 -0.0941  0.5023  0.1152
  858SOL     OW 3197   0.710   3.887   3.454  0.2288 -0.2409 -0.2402
  858SOL    HW1 3198   0.754   3.820   3.515 -0.2375 -0.5669 -0.2541
  858SOL    HW2 3199   0.631   3.844   3.410 -0.5646  0.5809  0.3790
  859SOL     OW 3200   2.025   2.432   1.886 -0.0814  0.0536 -0.0774
  859SOL    HW1 3201   2.067   2.345   1.859 -1.8472 -0.6979 -0.5345
  859SOL    HW2 3202   2.097   2.501   1.897  1.2716 -1.1879 -0.6657
  860SOL     OW 3203   4.223   2.362   0.464  0.0720  0.2306  0.5081
  860SOL    HW1 3204   4.139   2.340   0.515  0.3233 -0.1241  0.7738
  860SOL    HW2 3205   4.273   2.278   0.445 -0.2375  0.3106 -0.7285
  861SOL     OW 3206   4.131   0.003   0.413 -0.1775  0.0426 -0.4326
  861SOL    HW1 3207   4.035   0.011   0.383 -0.6844  1.4839  1.3703
  861SOL    HW2 3208   4.180   0.087   0.391  0.3836 -0.2582 -0.3550
  862SOL     OW 3209   2.737   2.900   2.531  0.1751  0.2740 -0.2745
  862SOL    HW1 3210   2.730   2.997   2.553  0.5977  0.1822  0.2793
  862SOL    HW2 3211   2.653   2.853   2.558  0.5573  0.2204  0.8689
  863SOL     OW 3212   1.244   2.669   2.622  0.3739  0.2380 -0.2127
  863SOL    HW1 3213   1.167   2.623   2.667  1.4324  0.4365  1.9371
  863SOL    HW2 3214   1.299   2.602   2.573  0.6410 -0.4555  0.9903
  864SOL     OW 3215   1.028   0.952   0.911 -0.0413  0.3192  0.0774
  864SOL    HW1 3216   0.964   0.964   0.987  0.7738 -2.9404  1.4662
  864SOL    HW2 3217   0.977   0.936   0.826 -1.0333 -0.0720  0.7325
  865SOL     OW 3218   2.520   4.672   1.790  0.3530 -0.5508 -0.1356
  865SOL    HW1 3219   2.433   4.722   1.791  0.5322 -0.1848 -1.3900
  865SOL    HW2 3220   2.502   4.576   1.767  0.4709  0.0238 -2.9016
  866SOL     OW 3221   4.170   2.386   2.416 -0.0701  0.6386 -0.4778
  866SOL    HW1 3222   4.249   2.366   2.474 -0.7464  1.0630  0.6244
  866SOL    HW2 3223   4.197   2.454   2.347  1.4087 -1.6888 -2.3329
  867SOL     OW 3224   2.811   0.454   2.898 -0.3547 -0.6231  0.1939
  867SOL    HW1 3225   2.732   0.428   2.842 -1.2250  0.0509  1.0708
  867SOL    HW2 3226   2.805   0.408   2.986 -0.2467  0.1265  0.5964
  868SOL     OW 3227   1.653   0.770   0.315  0.4998  0.5118 -0.2797
  868SOL    HW1 3228   1.744   0.775   0.273  0.9787  0.4534  0.7095
  868SOL    HW2 3229   1.663   0.763   0.414 -0.5635 -0.9197 -0.2484
  869SOL     OW 3230   4.100   4.307   2.031  0.5589 -0.1142  0.2701
  869SOL    HW1 3231   4.069   4.361   2.109  1.1896 -0.6582  0.9115
  869SOL    HW2 3232   4.027   4.245   2.002 -0.4324  1.5262 -0.9251
  870SOL     OW 3233   0.761   4.465   1.393  0.4296  0.5236 -0.0110
  870SOL    HW1 3234   0.840   4.404   1.395  1.4344  1.6485 -2.1157
  870SOL    HW2 3235   0.770   4.534   1.464  0.4094 -0.3970  0.9157
  871SOL     OW 3236   0.540   1.540   2.622  0.3726  0.2126 -0.2222
  871SOL    HW1 3237   0.587   1.534   2.533 -0.7356  0.0732 -0.8106
  871SOL    HW2 3238   0.459   1.597   2.612 -0.9841 -1.5768  0.1635
  872SOL     OW 3239   4.274   3.028   3.669  0.7012 -0.1056  0.1727
  872SOL    HW1 3240   4.225   3.115   3.661  0.7538  0.0205  1.0951
  872SOL    HW2 3241   4.240   2.964   3.600 -0.6710  0.0332  0.6822
  873SOL     OW 3242   2.653   0.399   0.188  0.4595  0.7241  0.3262
  873SOL    HW1 3243   2.677   0.452   0.270  1.3546 -1.1860  1.3588
  873SOL    HW2 3244   2.588   0.327   0.212 -0.6076  1.1785 -1.0251
  874SOL     OW 3245   3.661   1.689   3.158  0.1709  0.2673 -0.1951
  874SOL    HW1 3246   3.712   1.640   3.229 -0.9764 -0.7404 -0.0153
  874SOL    HW2 3247   3.699   1.667   3.069  0.5947  0.2129 -0.0014
  875SOL     OW 3248   1.867   1.060   4.112 -0.2716 -0.1225 -0.9466
  875SOL    HW1 3249   1.843   1.022   4.022  2.4686  0.5220 -2.0564
  875SOL    HW2 3250   1.851   1.158   4.112 -3.7349 -0.5576  0.6251
  876SOL     OW 3251   2.837   1.473   2.677  0.0805  0.3376 -0.1999
  876SOL    HW1 3252   2.863   1.569   2.663 -1.8219  0.9334  0.0036
  876SOL    HW2 3253   2.851   1.449   2.773 -0.9417  0.9527  0.1255
  877SOL     OW 3254   1.157   2.752   3.491 -0.2512  0.6122 -0.7458
  877SOL    HW1 3255   1.090   2.747   3.565 -0.0573  0.9254 -0.5496
  877SOL    HW2 3256   1.246   2.776   3.527  0.5769 -2.2721 -0.6547
  878SOL     OW 3257   3.838   3.254   2.187 -0.1885 -0.7603  0.3837
  878SOL    HW1 3258   3.744   3.277   2.161  0.2870  0.8238 -0.0267
  878SOL    HW2 3259   3.843   3.241   2.286 -0.2805  2.4131  0.9199
  879SOL     OW 3260   3.706   1.555   3.402  0.0137  0.1738  0.2140
  879SOL    HW1 3261   3.688   1.481   3.466 -1.5663  0.0604 -0.3164
  879SOL    HW2 3262   3.701   1.643   3.450  0.0816  0.0294  0.4885
  880SOL     OW 3263   3.133   1.520   2.005 -0.0447 -0.1964  0.1332
  880SOL    HW1 3264   3.232   1.522   2.013  0.0022 -0.2272 -0.3931
  880SOL    HW2 3265   3.107   1.508   1.909 -0.5650  0.7533  0.1414
  881SOL     OW 3266   3.655   0.742   4.143  0.2738 -0.5069 -0.0507
  881SOL    HW1 3267   3.593   0.806   4.189  0.3538 -0.9024  0.6267
  881SOL    HW2 3268   3.607   0.697   4.068  0.0665 -0.0285 -0.2105
  882SOL     OW 3269   0.381   3.117   1.396  0.3897 -0.6274  0.1210
  882SOL    HW1 3270   0.383   3.017   1.383 -0.4780 -0.7505  0.8819
  882SOL    HW2 3271   0.374   3.138   1.493  0.3938  0.1852 -0.0496
  883SOL     OW 3272   3.467   2.505   3.090  0.0610  0.3459 -0.2417
  883SOL    HW1 3273   3.414   2.587   3.113 -1.8659 -0.6770 -0.7644
  883SOL    HW2 3274   3.418   2.424   3.123  1.1603 -0.6843 -1.0609
  884SOL     OW 3275   1.608   4.902   3.867  0.6022 -0.0763 -0.3512
  884SOL    HW1 3276   1.672   4.933   3.796  0.1817 -0.3934 -0.8795
  884SOL    HW2 3277   1.515   4.926   3.840  0.2084 -2.1719 -1.0146
  885SOL     OW 3278   3.738   2.404   2.242 -0.7079  0.3696 -0.1107
  885SOL    HW1 3279   3.730   2.308   2.217  2.3197  0.0473 -0.1578
  885SOL    HW2 3280   3.652   2.435   2.283 -2.5382 -1.6726 -2.1489
  886SOL     OW 3281   2.664   3.213   1.061  0.0255 -0.0343 -0.2402
  886SOL    HW1 3282   2.692   3.307   1.043  2.7151 -0.6646  0.2590
  886SOL    HW2 3283   2.670   3.160   0.976  1.8259 -0.4823  0.1357
  887SOL     OW 3284   4.341   1.848   4.384 -0.2140  0.6185  0.2985
  887SOL    HW1 3285   4.289   1.882   4.463 -1.5576  1.8620 -1.0320
  887SOL    HW2 3286   4.327   1.910   4.307  0.5890 -0.8607 -1.0915
  888SOL     OW 3287   0.909   0.676   1.195  0.2702 -0.1812  0.3697
  888SOL    HW1 3288   0.829   0.628   1.232 -0.0597  1.8725  2.5138
  888SOL    HW2 3289   0.991   0.621   1.210 -0.3500 -1.0003  0.8328
  889SOL     OW 3290   1.421   1.873   4.615 -0.3002  0.3311 -0.3227
  889SOL    HW1 3291   1.385   1.808   4.547  1.1743 -0.0789 -0.7421
  889SOL    HW2 3292   1.507   1.911   4.582 -0.3378  1.2928  0.6521
  890SOL     OW 3293   4.835   4.840   4.393  0.3708  0.0142  0.5089
  890SOL    HW1 3294   4.802   4.749   4.366 -1.0804  0.6914 -0.1054
  890SOL    HW2 3295   4.771   4.910   4.360  0.7698  1.1876  2.0999
  891SOL     OW 3296   0.959   0.965   0.179 -0.1864 -0.5255 -0.6514
  891SOL    HW1 3297   0.972   1.044   0.119 -0.7000 -0.2421 -0.3908
  891SOL    HW2 3298   1.036   0.901   0.166  1.4864  1.0825  0.8296
  892SOL     OW 3299   0.332   3.289   0.543 -0.4446  0.1408 -0.5538
  892SOL    HW1 3300   0.357   3.367   0.485 -0.6105  0.6172  0.0024
  892SOL    HW2 3301   0.247   3.248   0.510 -0.8083  0.7235 -0.3606
  893SOL     OW 3302   1.785   2.222   4.007  0.0886  0.2814  0.4592
  893SOL    HW1 3303   1.833   2.212   3.920  1.6913  0.7518  1.2521
  893SOL    HW2 3304   1.837   2.178   4.079 -0.9875  0.3047  1.2748
  894SOL     OW 3305   3.701   2.784   2.679  0.1809 -0.2289  0.3169
  894SOL    HW1 3306   3.665   2.696   2.649 -0.9739  0.7658 -1.4342
  894SOL    HW2 3307   3.782   2.808   2.625 -0.0282  0.1533  0.1636
  895SOL     OW 3308   0.595   3.507   4.192 -0.5735  0.0369  0.3851
  895SOL    HW1 3309   0.561   3.586   4.243 -0.1362  0.4272  0.0693
  895SOL    HW2 3310   0.527   3.433   4.197 -0.9813  0.4266  0.6785
  896SOL     OW 3311   2.833   2.032   2.973  0.1779  0.0048  0.1728
  896SOL    HW1 3312   2.864   1.949   2.926 -0.2128 -0.9453  1.5216
  896SOL    HW2 3313   2.743   2.015   3.015  0.3113  0.9451  0.8760
  897SOL     OW 3314   2.028   4.344   4.187  0.6183 -0.1508  0.1778
  897SOL    HW1 3315   1.948   4.370   4.241  1.1283  1.3800  0.2601
  897SOL    HW2 3316   2.111   4.361   4.241  1.0573 -0.1530 -0.4842
  898SOL     OW 3317   3.741   4.062   4.609 -0.0410 -0.5501  0.3939
  898SOL    HW1 3318   3.680   4.132   4.646 -1.7443 -1.3882 -0.6798
  898SOL    HW2 3319   3.756   4.079   4.511  0.5539 -0.9731  0.4060
  899SOL     OW 3320   1.988   1.314   2.676  0.3438  0.2442 -0.0859
  899SOL    HW1 3321   1.940   1.340   2.760  0.6489  0.1207  0.1310
  899SOL    HW2 3322   1.944   1.357   2.598 -1.0254 -1.0732 -0.0642
  900SOL     OW 3323   1.274   2.824   1.899 -0.2110  0.8186  0.3207
  900SOL    HW1 3324   1.230   2.773   1.824 -1.3839  0.4109  1.2563
  900SOL    HW2 3325   1.369   2.841   1.875 -0.0717 -0.8520 -0.5294
  901SOL     OW 3326   2.131   3.211   0.460  0.1717 -0.5592  0.2893
  901SOL    HW1 3327   2.087   3.300   0.445  0.1645 -0.5931  0.1049
  901SOL    HW2 3328   2.212   3.204   0.401 -0.5702 -1.2065 -0.6933
  902SOL     OW 3329   1.786   0.524   4.325 -0.4016 -0.7714  0.4246
  902SOL    HW1 3330   1.707   0.511   4.266 -0.1133  0.3804 -0.2421
  902SOL    HW2 3331   1.831   0.436   4.341 -0.8166 -1.1784 -0.5994
  903SOL     OW 3332   1.209   2.039   4.650  0.1940  0.3185  0.0340
  903SOL    HW1 3333   1.186   2.092   4.732  0.2335 -0.0823  0.3109
  903SOL    HW2 3334   1.288   1.980   4.669 -2.0052 -2.5764  0.9768
  904SOL     OW 3335   1.450   2.802   4.891 -0.6942  0.2978  0.0143
  904SOL    HW1 3336   1.437   2.754   4.978 -1.1268 -1.3265 -0.8904
  904SOL    HW2 3337   1.371   2.787   4.833  0.4329 -0.3807 -1.4201
  905SOL     OW 3338   2.539   2.509   1.044 -0.4714  0.6009  0.2784
  905SOL    HW1 3339   2.458   2.562   1.022  0.3274  1.8450  0.2392
  905SOL    HW2 3340   2.513   2.429   1.099 -1.6268  1.4066  0.9407
  906SOL     OW 3341   3.772   2.454   4.518 -0.2006  0.0540  0.0953
  906SOL    HW1 3342   3.831   2.405   4.583  0.2886  0.1371 -0.2875
  906SOL    HW2 3343   3.676   2.432   4.538  0.0249 -1.5898 -0.4783
  907SOL     OW 3344   2.997   1.323   3.676  0.4716  0.3289 -0.0120
  907SOL    HW1 3345   3.009   1.413   3.635  1.2955  1.4320  2.4610
  907SOL    HW2 3346   2.905   1.317   3.716  1.2867  1.2049  2.1795
  908SOL     OW 3347   1.368   3.433   2.494 -0.5366 -0.2076  0.5511
  908SOL    HW1 3348   1.374   3.530   2.517  0.0674 -0.3024  0.8364
  908SOL    HW2 3349   1.453   3.388   2.522 -0.6625 -0.7454  0.0819
  909SOL     OW 3350   4.293   2.198   2.940  0.0317  0.4327 -0.2372
  909SOL    HW1 3351   4.357   2.273   2.957  0.5712 -0.3271  1.2387
  909SOL    HW2 3352   4.315   2.156   2.852  1.4487  0.3167  0.1478
  910SOL     OW 3353   2.081   4.168   3.043 -0.5466  0.5382  0.2096
  910SOL    HW1 3354   2.145   4.152   2.968  0.7145  1.1625  1.1087
  910SOL    HW2 3355   2.050   4.080   3.080  0.0985  0.2289  0.0262
  911SOL     OW 3356   1.262   1.781   1.559 -0.4009  0.2955 -0.4244
  911SOL    HW1 3357   1.306   1.709   1.613 -0.4497  1.3133  1.0289
  911SOL    HW2 3358   1.229   1.743   1.473  2.7264 -0.6859 -1.3266
  912SOL     OW 3359   1.511   4.649   1.696  0.0969 -0.0975 -0.4421
  912SOL    HW1 3360   1.456   4.683   1.772 -0.9037 -1.0089 -0.7377
  912SOL    HW2 3361   1.604   4.630   1.729  0.2475  1.3871  0.0765
  913SOL     OW 3362   2.526   1.707   3.093 -0.1567  0.3570 -0.7606
  913SOL    HW1 3363   2.594   1.653   3.042 -0.8878 -0.0215 -1.3450
  913SOL    HW2 3364   2.476   1.647   3.155  0.9200  0.8623  0.6489
  914SOL     OW 3365   2.654   0.383   3.185 -0.0595  0.1481 -0.0333
  914SOL    HW1 3366   2.637   0.312   3.253  0.9976  1.7003  1.9223
  914SOL    HW2 3367   2.567   0.424   3.157 -0.5306 -0.7477  0.0830
  915SOL     OW 3368   0.960   0.035   1.711  0.3436 -0.4245  0.2304
  915SOL    HW1 3369   0.861   0.027   1.713  0.0428  2.4082  0.0962
  915SOL    HW2 3370   0.989   0.068   1.621  0.9881  2.3790  1.3855
  916SOL     OW 3371   1.830   1.467   1.637  0.4333 -0.2023  0.0486
  916SOL    HW1 3372   1.858   1.372   1.623 -1.3675 -0.6718 -0.5575
  916SOL    HW2 3373   1.776   1.498   1.559  1.9690  1.7442 -0.3338
  917SOL     OW 3374   3.155   4.181   4.435 -0.3716  0.4506 -0.0189
  917SOL    HW1 3375   3.212   4.107   4.401 -2.2479 -0.9868 -0.1791
  917SOL    HW2 3376   3.197   4.220   4.517  1.3244  0.1488 -0.6968
  918SOL     OW 3377   1.085   3.075   4.546  0.4722 -0.2108 -0.7428
  918SOL    HW1 3378   1.167   3.025   4.517  0.7123 -1.5778  1.9569
  918SOL    HW2 3379   1.004   3.021   4.524  0.4742 -0.0841 -1.0647
  919SOL     OW 3380   0.326   2.638   2.526  0.5753  0.4733  0.5956
  919SOL    HW1 3381   0.322   2.538   2.519 -2.2498  0.6368 -2.0122
  919SOL    HW2 3382   0.416   2.669   2.495  1.0398 -1.1898  0.1704
  920SOL     OW 3383   2.061   1.697   0.550 -0.4490 -0.5518  0.1755
  920SOL    HW1 3384   2.071   1.796   0.545 -1.5524 -0.4616 -0.4702
  920SOL    HW2 3385   2.134   1.659   0.607 -0.4151  0.6867  0.9918
  921SOL     OW 3386   3.025   3.764   3.593  0.0607  0.3042  0.1531
  921SOL    HW1 3387   3.051   3.670   3.574  0.1607  0.4362 -0.3788
  921SOL    HW2 3388   3.106   3.818   3.614 -0.0625  0.1311  1.1034
  922SOL     OW 3389   1.004   0.579   0.091 -0.0271  0.2947 -0.0074
  922SOL    HW1 3390   0.927   0.584   0.027 -0.5127  0.3838  0.5757
  922SOL    HW2 3391   1.061   0.500   0.068 -0.4053  0.1088 -0.3285
  923SOL     OW 3392   4.370   0.188   1.073 -0.1759 -0.3659  0.1259
  923SOL    HW1 3393   4.296   0.213   1.135 -1.1813 -0.3227 -1.0530
  923SOL    HW2 3394   4.366   0.090   1.054 -0.7067 -0.1716 -0.8720
  924SOL     OW 3395   1.728   2.196   3.674  0.4500 -0.1798 -0.5405
  924SOL    HW1 3396   1.644   2.150   3.647  0.6850 -0.9009 -0.0892
  924SOL    HW2 3397   1.760   2.255   3.599 -1.6170  1.8704  0.0870
  925SOL     OW 3398   4.554   0.488   1.943  0.3439  0.0254  0.6024
  925SOL    HW1 3399   4.471   0.444   1.977 -0.2481 -1.7694 -2.7491
  925SOL    HW2 3400   4.630   0.425   1.949  0.4783  0.0955 -0.2422
  926SOL     OW 3401   4.027   2.753   2.118 -0.3115  0.0380 -0.2481
  926SOL    HW1 3402   4.071   2.768   2.029  0.4782  1.4034  0.3398
  926SOL    HW2 3403   4.020   2.840   2.167  0.9865 -0.9481  1.8079
  927SOL     OW 3404   1.472   2.399   2.455  0.4791 -0.1384 -0.0850
  927SOL    HW1 3405   1.444   2.462   2.383  0.4274 -0.8869 -0.7293
  927SOL    HW2 3406   1.514   2.451   2.529 -0.3965  0.7443 -0.1871
  928SOL     OW 3407   3.809   2.942   4.128 -0.4580 -0.4026 -0.6888
  928SOL    HW1 3408   3.738   2.994   4.177  0.0544  0.0281 -0.4018
  928SOL    HW2 3409   3.837   2.992   4.047 -1.3378 -1.1371 -1.4712
  929SOL     OW 3410   2.045   1.956   0.522 -0.0037 -0.2460  0.0709
  929SOL    HW1 3411   1.961   2.009   0.512  0.5525  0.6043 -0.1917
  929SOL    HW2 3412   2.104   2.000   0.590 -0.6113 -1.9371  1.7663
  930SOL     OW 3413   1.447   4.240   3.332  0.4819 -0.3034 -0.0676
  930SOL    HW1 3414   1.390   4.201   3.260 -0.7712  0.3417  0.5299
  930SOL    HW2 3415   1.543   4.217   3.316  0.0378 -1.5619 -1.0141
  931SOL     OW 3416   2.993   3.904   0.458 -0.5916  0.3676  0.0862
  931SOL    HW1 3417   2.917   3.860   0.506 -1.2194 -0.9552 -1.9991
  931SOL    HW2 3418   3.078   3.884   0.506 -1.2375 -0.4915  0.9195
  932SOL     OW 3419   2.459   4.014   3.771 -0.5129  0.3781 -1.0650
  932SOL    HW1 3420   2.421   4.065   3.848  1.2501  0.9682 -0.5437
  932SOL    HW2 3421   2.544   4.058   3.741  0.2586 -1.4004 -1.5761
  933SOL     OW 3422   2.465   2.861   2.958  0.4067  0.0427  0.4923
  933SOL    HW1 3423   2.514   2.908   2.884  1.2306  1.2163  1.7380
  933SOL    HW2 3424   2.521   2.863   3.041 -1.2647  0.4003  1.6487
  934SOL     OW 3425   4.682   4.875   4.092 -0.7190 -0.1363  0.0596
  934SOL    HW1 3426   4.643   4.934   4.163  0.6225  1.6941 -0.6237
  934SOL    HW2 3427   4.695   4.928   4.008 -0.0304 -1.5900 -0.8034
  935SOL     OW 3428   1.402   1.785   0.561  0.4217 -0.7280  0.4713
  935SOL    HW1 3429   1.306   1.767   0.537 -0.1446  0.4457  1.7411
  935SOL    HW2 3430   1.414   1.774   0.659  0.6550  2.8707  0.9551
  936SOL     OW 3431   1.816   0.392   0.451  0.1242  0.1784 -0.3966
  936SOL    HW1 3432   1.897   0.336   0.432 -0.4002 -1.3103  1.4399
  936SOL    HW2 3433   1.766   0.407   0.366  1.2317 -0.6394 -1.2283
  937SOL     OW 3434   1.381   3.290   3.123 -0.0960 -0.5298 -0.0101
  937SOL    HW1 3435   1.451   3.319   3.057  0.1393 -1.4938 -0.2038
  937SOL    HW2 3436   1.421   3.226   3.188 -1.1469 -2.3774 -1.1105
  938SOL     OW 3437   0.605   3.077   0.582 -0.4069  0.2776  0.2970
  938SOL    HW1 3438   0.554   3.029   0.653 -1.1733  0.8107  0.1229
  938SOL    HW2 3439   0.692   3.031   0.567 -0.3030  0.0524  1.4543
  939SOL     OW 3440   4.130   0.068   4.760 -0.1373 -0.0469 -0.1232
  939SOL    HW1 3441   4.220   0.068   4.803 -0.1612  1.0824 -0.0448
  939SOL    HW2 3442   4.112  -0.022   4.720  0.2904 -0.8203  1.3570
  940SOL     OW 3443   0.009   2.734   1.881 -0.1345 -0.3696 -0.2545
  940SOL    HW1 3444  -0.077   2.773   1.849  0.0318  1.4632  1.3420
  940SOL    HW2 3445   0.014   2.741   1.981  2.0431 -0.0370 -0.3394
  941SOL     OW 3446   1.944   0.611   0.071  0.4415 -0.2590 -0.1426
  941SOL    HW1 3447   1.860   0.583   0.024 -0.0688  0.0890  0.5350
  941SOL    HW2 3448   1.998   0.531   0.093 -1.0994 -0.8346  1.9605
  942SOL     OW 3449   4.350   2.187   2.306 -0.0133  0.1243 -0.6939
  942SOL    HW1 3450   4.283   2.248   2.349  1.0255 -0.0855  1.3561
  942SOL    HW2 3451   4.406   2.240   2.242  0.0574  1.0710  0.1207
  943SOL     OW 3452   2.333   2.862   3.265  0.3676  0.1276  0.2817
  943SOL    HW1 3453   2.405   2.795   3.248 -0.1647 -0.1016 -1.1806
  943SOL    HW2 3454   2.373   2.945   3.303  1.0020 -1.0996  2.4520
  944SOL     OW 3455   3.427   2.248   1.090 -0.6145  0.0911 -0.5918
  944SOL    HW1 3456   3.379   2.297   1.163  0.7162 -0.8216  0.9645
  944SOL    HW2 3457   3.404   2.290   1.002 -0.4525  2.7724  0.5253
  945SOL     OW 3458   4.791   4.216   4.153 -0.8669 -0.1286 -0.4922
  945SOL    HW1 3459   4.873   4.260   4.115 -1.8071  1.3320 -0.9363
  945SOL    HW2 3460   4.770   4.133   4.102 -0.5806  0.3770 -1.4579
  946SOL     OW 3461   1.412   2.618   2.061  0.2264 -0.1125  0.8241
  946SOL    HW1 3462   1.366   2.699   2.026 -1.2610 -0.8177  1.0633
  946SOL    HW2 3463   1.399   2.612   2.160 -0.4315 -1.0910  0.6912
  947SOL     OW 3464   1.651   1.974   0.958 -0.4386 -0.1644 -0.4241
  947SOL    HW1 3465   1.617   2.030   0.883 -2.1506 -0.8919 -0.2361
  947SOL    HW2 3466   1.592   1.894   0.969 -0.9586  0.4927  2.4212
  948SOL     OW 3467   0.728   4.385   0.289 -0.5267 -0.1694 -0.3309
  948SOL    HW1 3468   0.677   4.373   0.374 -0.0574  1.7078  0.2615
  948SOL    HW2 3469   0.674   4.436   0.223 -0.1874  0.0301 -0.4601
  949SOL     OW 3470   2.928   3.959   0.969 -0.1516  0.7118 -0.0146
  949SOL    HW1 3471   2.875   3.875   0.957  0.9517  0.0612 -0.5029
  949SOL    HW2 3472   2.965   3.962   1.062 -1.5418  1.4988  0.5572
  950SOL     OW 3473   4.512   2.190   1.892  0.5396  0.5233 -0.4395
  950SOL    HW1 3474   4.589   2.127   1.899  1.4928  1.7858  1.3382
  950SOL    HW2 3475   4.528   2.269   1.952 -1.5542  1.4559 -1.0113
  951SOL     OW 3476   3.708   2.611   0.750 -0.1226 -0.7034  0.3018
  951SOL    HW1 3477   3.641   2.585   0.680  1.4185 -1.2395 -1.0535
  951SOL    HW2 3478   3.737   2.530   0.801 -1.2030 -0.3207  1.5607
  952SOL     OW 3479   4.834   1.652   4.332 -0.0517 -0.1584  0.1732
  952SOL    HW1 3480   4.840   1.718   4.257  0.7299 -0.2049  0.1903
  952SOL    HW2 3481   4.799   1.565   4.298  0.3235 -0.1855 -0.1439
  953SOL     OW 3482   2.060   2.156   3.450 -0.2631 -0.0627 -0.5291
  953SOL    HW1 3483   2.116   2.091   3.501 -0.5305  0.2018  0.1141
  953SOL    HW2 3484   2.097   2.168   3.358  0.5056 -0.1833 -0.2393
  954SOL     OW 3485   3.816   4.808   0.720  0.3623  0.6128  0.1360
  954SOL    HW1 3486   3.774   4.836   0.806  0.3198  1.8210 -0.2512
  954SOL    HW2 3487   3.759   4.740   0.675  0.5792 -0.3203  1.2283
  955SOL     OW 3488   3.536   3.712   0.706 -0.5159  0.1428  0.2523
  955SOL    HW1 3489   3.579   3.781   0.764  1.1824  0.4529 -1.2998
  955SOL    HW2 3490   3.445   3.690   0.742 -0.6091  2.2753  1.4592
  956SOL     OW 3491   2.380   4.522   4.051 -0.2455 -0.0457 -0.7132
  956SOL    HW1 3492   2.370   4.474   4.138 -1.2471  2.3994  0.6537
  956SOL    HW2 3493   2.290   4.538   4.011  0.1195 -0.0168 -1.5469
  957SOL     OW 3494   0.754   3.726   4.168 -0.0925  0.0640 -0.1702
  957SOL    HW1 3495   0.742   3.627   4.179 -0.0993 -0.1279 -1.6118
  957SOL    HW2 3496   0.832   3.757   4.221  1.7647 -1.2760 -1.9670
  958SOL     OW 3497   3.643   0.306   2.014 -0.6932 -0.3957 -0.1931
  958SOL    HW1 3498   3.684   0.260   2.093  1.1849  0.5353 -0.5898
  958SOL    HW2 3499   3.546   0.322   2.033 -0.2961 -0.1695  1.9372
  959SOL     OW 3500   2.029   3.902   3.168 -0.2135 -0.3874  0.0776
  959SOL    HW1 3501   1.957   3.874   3.231 -1.1209  0.8331 -0.3737
  959SOL    HW2 3502   2.070   3.821   3.126 -0.5542 -1.1463  1.1707
  960SOL     OW 3503   2.136   3.445   4.090 -0.2328 -0.1591  0.1685
  960SOL    HW1 3504   2.148   3.346   4.098 -0.1452 -0.2430 -0.8850
  960SOL    HW2 3505   2.162   3.474   3.998  0.5381  0.9695  0.7285
  961SOL     OW 3506   0.954   2.027   2.741  0.2177 -0.4394 -0.1758
  961SOL    HW1 3507   0.959   1.986   2.650 -1.3255  0.2748 -0.6180
  961SOL    HW2 3508   1.033   2.088   2.754  0.2183 -0.1827 -1.2329
  962SOL     OW 3509   3.124   0.017   1.963  0.1127 -0.5210 -0.2000
  962SOL    HW1 3510   3.137   0.115   1.955 -0.6594 -0.3495  0.4738
  962SOL    HW2 3511   3.128  -0.009   2.060  3.4957 -1.6345 -0.5408
  963SOL     OW 3512   4.251   1.274   2.004 -0.2082  0.1773 -0.1034
  963SOL    HW1 3513   4.205   1.363   2.009  0.4593  0.6054 -1.1857
  963SOL    HW2 3514   4.325   1.279   1.937  0.2789 -1.0058  0.3223
  964SOL     OW 3515   3.005   4.546   3.991  0.1396 -0.0034  0.2319
  964SOL    HW1 3516   3.030   4.580   4.082  0.1765  1.7633 -0.4095
  964SOL    HW2 3517   2.962   4.456   4.000 -0.4689  0.4332  2.0430
  965SOL     OW 3518   3.515   3.489   4.388  0.4052  0.3116 -0.1332
  965SOL    HW1 3519   3.583   3.457   4.323 -0.3199  0.4948 -1.0121
  965SOL    HW2 3520   3.430   3.438   4.376  0.6825 -0.6729  1.6860
  966SOL     OW 3521   1.770   4.705   0.147  0.1186 -0.1337  0.0623
  966SOL    HW1 3522   1.777   4.690   0.048 -1.2283 -0.5638  0.0231
  966SOL    HW2 3523   1.830   4.781   0.173 -1.7305  2.0050 -1.5790
  967SOL     OW 3524   1.723   3.504   2.700 -0.4198 -0.5633  0.5219
  967SOL    HW1 3525   1.705   3.602   2.705 -0.9766 -0.6663  0.6009
  967SOL    HW2 3526   1.822   3.488   2.706 -0.2806  0.0272 -0.1047
  968SOL     OW 3527   4.324   0.655   2.372  0.2868 -0.2332 -0.2833
  968SOL    HW1 3528   4.264   0.702   2.307 -0.5614 -0.5403  0.2564
  968SOL    HW2 3529   4.270   0.587   2.423  1.0164 -0.2481  0.4797
  969SOL     OW 3530   1.968   1.248   2.068  0.6319 -0.0389  0.0223
  969SOL    HW1 3531   2.060   1.276   2.040 -0.1763  2.5467 -0.2750
  969SOL    HW2 3532   1.937   1.306   2.144 -0.8798 -0.6502 -0.1002
  970SOL     OW 3533   2.651   4.626   3.063 -0.3550 -0.7380 -0.4842
  970SOL    HW1 3534   2.686   4.550   3.009 -0.5066 -0.8994 -0.3552
  970SOL    HW2 3535   2.556   4.609   3.088 -0.2523 -0.7168 -0.0729
  971SOL     OW 3536   1.695   0.501   1.139  0.7336 -0.0916  0.3302
  971SOL    HW1 3537   1.618   0.504   1.203 -0.0265 -1.4998 -0.4620
  971SOL    HW2 3538   1.684   0.575   1.072  0.8189  0.5568  1.0137
  972SOL     OW 3539   1.075   4.081   3.824 -0.1697 -0.8298  0.2471
  972SOL    HW1 3540   1.015   4.129   3.888 -0.3311  0.3229 -0.7227
  972SOL    HW2 3541   1.166   4.121   3.827 -0.3451 -0.3200 -0.6870
  973SOL     OW 3542   2.789   4.219   1.984  0.2979 -0.2412  1.0134
  973SOL    HW1 3543   2.814   4.172   2.069 -0.3527  0.9396  1.8845
  973SOL    HW2 3544   2.743   4.305   2.006  0.6052  0.3446 -0.5459
  974SOL     OW 3545   2.131   2.334   3.060 -0.5536 -0.5929 -0.6006
  974SOL    HW1 3546   2.140   2.423   3.106 -0.0799 -0.6714 -0.5452
  974SOL    HW2 3547   2.172   2.263   3.116 -2.2521 -1.0977  0.0839
  975SOL     OW 3548   4.328   4.584   4.427 -0.0101 -0.0268 -0.0241
  975SOL    HW1 3549   4.237   4.610   4.395  0.3710 -0.1417 -1.2385
  975SOL    HW2 3550   4.321   4.552   4.522 -0.9226  1.8167  0.5930
  976SOL     OW 3551   1.451   1.991   0.346  0.4590  0.0971 -0.3333
  976SOL    HW1 3552   1.442   1.920   0.416 -0.3123  1.6063  1.1478
  976SOL    HW2 3553   1.492   1.951   0.264 -1.4196 -2.4713 -0.1536
  977SOL     OW 3554   0.625   4.001   0.302 -0.0182  0.2407 -0.2125
  977SOL    HW1 3555   0.550   3.937   0.283  1.5296 -2.2568  1.4990
  977SOL    HW2 3556   0.630   4.018   0.400  1.5475  0.4905 -0.3165
  978SOL     OW 3557   2.307   2.999   2.125  0.4286  0.2052 -0.1282
  978SOL    HW1 3558   2.313   2.995   2.026 -0.1386  0.4930 -0.1814
  978SOL    HW2 3559   2.395   2.973   2.166  0.9192  0.9005 -0.7227
  979SOL     OW 3560   1.343   1.415   0.338  0.2978 -0.2902  0.3085
  979SOL    HW1 3561   1.313   1.500   0.293 -1.1596 -1.0636 -0.2224
  979SOL    HW2 3562   1.369   1.436   0.432  0.6874  0.8703 -0.0292
  980SOL     OW 3563   0.675   1.183   4.586  0.3436  0.0903  0.0646
  980SOL    HW1 3564   0.617   1.183   4.504 -1.6019  0.4257  1.3680
  980SOL    HW2 3565   0.658   1.099   4.638  2.0775 -0.4453 -0.1769
  981SOL     OW 3566   1.503   1.597   3.994 -0.6277  0.2100 -0.1303
  981SOL    HW1 3567   1.581   1.595   3.932 -0.4654 -0.8522  0.0876
  981SOL    HW2 3568   1.471   1.504   4.011  0.6322  0.2018  2.9602
  982SOL     OW 3569   1.797   2.707   0.594  0.1250 -0.3096  0.4885
  982SOL    HW1 3570   1.886   2.673   0.625  0.0889 -0.3225  0.5801
  982SOL    HW2 3571   1.736   2.629   0.577  1.2098 -0.5493 -3.0171
  983SOL     OW 3572   3.271   3.359   2.989 -0.0716  0.3894  0.2381
  983SOL    HW1 3573   3.253   3.424   2.915  0.5077  0.9649  0.5916
  983SOL    HW2 3574   3.275   3.408   3.077  1.5622  0.0877  0.3768
  984SOL     OW 3575   1.675   0.573   1.616 -0.0971  0.4093 -0.1696
  984SOL    HW1 3576   1.621   0.549   1.697  1.1474  2.4094  1.3350
  984SOL    HW2 3577   1.727   0.493   1.586 -0.5997 -0.3800  0.9917
  985SOL     OW 3578   0.393   3.113   3.311  0.4451  0.4272  0.5503
  985SOL    HW1 3579   0.467   3.137   3.249  1.6843  0.5420  2.0121
  985SOL    HW2 3580   0.372   3.016   3.302  2.9110 -0.3572  2.2061
  986SOL     OW 3581   1.211   3.281   2.073 -0.7509  0.1300  0.1487
  986SOL    HW1 3582   1.290   3.328   2.112 -0.7540 -0.0184  0.3376
  986SOL    HW2 3583   1.238   3.229   1.993 -0.5084 -0.5206  0.6467
  987SOL     OW 3584   2.094   4.542   4.762 -0.6041 -0.1494  0.1203
  987SOL    HW1 3585   2.178   4.550   4.815 -0.9484 -0.7191  0.7585
  987SOL    HW2 3586   2.107   4.473   4.691  0.0726  1.0637 -0.9921
  988SOL     OW 3587   0.168   4.531   4.294  0.2093 -0.0638  0.2890
  988SOL    HW1 3588   0.072   4.560   4.297  0.4875  0.8434  0.9882
  988SOL    HW2 3589   0.220   4.596   4.239  0.3033 -0.9687 -0.7214
  989SOL     OW 3590   1.667   3.601   1.569 -0.0481  0.2265  0.2585
  989SOL    HW1 3591   1.759   3.613   1.533 -0.5792 -0.4018 -1.3847
  989SOL    HW2 3592   1.642   3.504   1.568 -1.2098  0.5103 -0.5919
  990SOL     OW 3593   3.362   3.530   2.561 -0.2663  0.1293  0.1050
  990SOL    HW1 3594   3.444   3.574   2.597 -0.2661  0.2286 -0.0160
  990SOL    HW2 3595   3.291   3.599   2.545 -1.4345 -0.2566  2.9583
  991SOL     OW 3596   3.544   1.155   3.034  0.6057  0.4077  0.0542
  991SOL    HW1 3597   3.575   1.242   3.072 -1.6687  2.2204 -1.8772
  991SOL    HW2 3598   3.537   1.163   2.934 -0.4487 -1.7372 -0.1113
  992SOL     OW 3599   4.621   3.858   0.808 -0.0922 -0.2045  0.6317
  992SOL    HW1 3600   4.643   3.925   0.880  0.0956 -1.0771  1.4015
  992SOL    HW2 3601   4.704   3.833   0.759 -0.2385  0.4774  0.0236
  993SOL     OW 3602   2.239   1.615   0.729 -0.2620 -0.6621 -0.1015
  993SOL    HW1 3603   2.167   1.610   0.798  0.2096 -2.5789  0.3107
  993SOL    HW2 3604   2.326   1.637   0.773 -0.0274 -1.5366 -0.1024
  994SOL     OW 3605   2.852   4.680   3.223  0.1539  0.0320  0.2766
  994SOL    HW1 3606   2.769   4.652   3.176 -0.0979  0.6542  0.3473
  994SOL    HW2 3607   2.837   4.767   3.270  1.5162  1.3845 -1.6283
  995SOL     OW 3608   2.236   0.079   2.273 -0.3331  0.1288 -0.1036
  995SOL    HW1 3609   2.145   0.048   2.301  0.4040  0.0236  2.4126
  995SOL    HW2 3610   2.266   0.152   2.333  0.2877  1.9421 -2.4617
  996SOL     OW 3611   1.331   0.179   1.115  0.2595  0.4106 -0.2683
  996SOL    HW1 3612   1.360   0.139   1.028  0.3076 -1.4717  0.5650
  996SOL    HW2 3613   1.410   0.218   1.162  0.8648 -1.3983  0.3173
  997SOL     OW 3614   2.550   0.169   4.639 -0.0147 -0.2241  0.2797
  997SOL    HW1 3615   2.543   0.116   4.724  0.2596 -0.7293 -0.0084
  997SOL    HW2 3616   2.459   0.192   4.606 -0.1334 -0.5410  0.3902
  998SOL     OW 3617   4.683   1.985   1.924  0.7796 -0.2067 -0.0157
  998SOL    HW1 3618   4.616   1.922   1.963  0.6594 -0.8640 -1.2531
  998SOL    HW2 3619   4.722   1.946   1.841  0.6416  1.3980 -0.8668
  999SOL     OW 3620   4.096   3.571   1.409 -0.6419  0.4138  0.2286
  999SOL    HW1 3621   4.170   3.630   1.378 -0.3228  0.4361  1.0117
  999SOL    HW2 3622   4.133   3.498   1.466 -0.9433 -0.9787 -1.2697
 1000SOL     OW 3623   3.804   1.796   0.415 -0.1513  0.0250  0.4979
 1000SOL    HW1 3624   3.820   1.852   0.497 -0.3490  1.0530 -0.1468
 1000SOL    HW2 3625   3.873   1.819   0.346 -0.4504 -0.2912  0.0915
 1001SOL     OW 3626   1.551   1.271   3.352 -0.1406 -0.4874 -0.4725
 1001SOL    HW1 3627   1.555   1.315   3.262 -0.9495 -0.1791 -0.3619
 1001SOL    HW2 3628   1.600   1.327   3.419 -1.3153  0.3545 -0.2933
 1002SOL     OW 3629   2.409   0.455   0.685  0.0033 -0.2269  0.6410
 1002SOL    HW1 3630   2.355   0.537   0.670 -0.0997 -0.1417  1.4557
 1002SOL    HW2 3631   2.505   0.480   0.698  0.5424 -0.4679 -2.1851
 1003SOL     OW 3632   2.016   4.835   2.054  0.0545 -0.9312  0.2613
 1003SOL    HW1 3633   2.033   4.747   2.010  0.0138 -0.6112 -0.4104
 1003SOL    HW2 3634   1.995   4.821   2.151 -1.9265 -1.8538 -0.2427
 1004SOL     OW 3635   4.415   0.667   3.745 -0.0221 -0.3728 -0.1144
 1004SOL    HW1 3636   4.419   0.767   3.739 -1.2686 -0.3305 -0.3569
 1004SOL    HW2 3637   4.457   0.638   3.831  0.2024  0.3606  0.0379
 1005SOL     OW 3638   1.678   3.845   0.668  0.2431 -0.4433  0.1875
 1005SOL    HW1 3639   1.672   3.781   0.591  0.9997 -1.6638  1.1037
 1005SOL    HW2 3640   1.624   3.809   0.745  1.1257 -0.2721  0.9026
 1006SOL     OW 3641   0.559   1.875   2.973  0.5917 -0.0960 -0.0978
 1006SOL    HW1 3642   0.518   1.896   2.884  0.8885  0.5420 -0.0864
 1006SOL    HW2 3643   0.648   1.830   2.959 -0.9349 -3.3971 -0.1590
 1007SOL     OW 3644   3.993   1.294   4.283 -0.2069 -0.2301 -0.3364
 1007SOL    HW1 3645   4.001   1.197   4.305 -0.4687 -0.0011  0.8725
 1007SOL    HW2 3646   3.898   1.324   4.294 -0.5135 -0.2290 -2.5543
 1008SOL     OW 3647   4.424   1.802   0.308  0.1567 -0.3895  0.2145
 1008SOL    HW1 3648   4.419   1.819   0.407 -0.1695 -1.4036  0.3759
 1008SOL    HW2 3649   4.359   1.731   0.283  1.0813 -0.9856 -0.5472
 1009SOL     OW 3650   1.214   0.020   0.691 -0.2402 -0.1043  0.0544
 1009SOL    HW1 3651   1.183  -0.062   0.642 -0.2644 -0.4211  0.5906
 1009SOL    HW2 3652   1.209   0.099   0.630 -2.0525 -0.1491  0.0870
 1010SOL     OW 3653   4.203   4.373   4.095  0.1871  0.4755 -0.0138
 1010SOL    HW1 3654   4.301   4.383   4.113  0.3966 -1.0876 -0.1114
 1010SOL    HW2 3655   4.190   4.318   4.013 -0.7597 -0.1139  0.5151
 1011SOL     OW 3656   4.005   2.224   2.919  0.0942 -0.4123  0.2265
 1011SOL    HW1 3657   4.103   2.243   2.913  0.3560 -1.5910  0.5739
 1011SOL    HW2 3658   3.981   2.203   3.014 -0.8719  1.6664  0.5135
 1012SOL     OW 3659   1.388   4.393   0.360  0.3929 -0.4135  0.4926
 1012SOL    HW1 3660   1.302   4.370   0.406 -1.2328  0.8969 -1.6799
 1012SOL    HW2 3661   1.397   4.493   0.355  0.9160 -0.5169 -1.2044
 1013SOL     OW 3662   3.995   4.159   4.709 -0.0523 -0.2794  0.6406
 1013SOL    HW1 3663   4.018   4.123   4.799 -0.2146 -0.7454  0.4966
 1013SOL    HW2 3664   3.914   4.112   4.674 -0.6279  0.6274  0.7068
 1014SOL     OW 3665   2.482   0.611   4.749 -0.4199 -0.6684 -0.4455
 1014SOL    HW1 3666   2.411   0.546   4.723 -1.0640 -0.7529  1.3816
 1014SOL    HW2 3667   2.440   0.696   4.780  0.3957  0.3548 -2.0255
 1015SOL     OW 3668   2.135   2.743   3.624  0.0038 -0.2077  0.0885
 1015SOL    HW1 3669   2.193   2.705   3.695 -0.5783  2.0350  1.8589
 1015SOL    HW2 3670   2.050   2.690   3.619  0.1867 -0.5802  0.8395
 1016SOL     OW 3671   0.293   0.036   2.924  0.5610 -0.2617 -0.4729
 1016SOL    HW1 3672   0.347   0.041   2.840 -1.2055 -0.9093 -1.7082
 1016SOL    HW2 3673   0.249   0.124   2.940  0.0669 -0.4509 -0.8006
 1017SOL     OW 3674   2.207   1.350   3.911 -0.1943 -0.2373 -0.3117
 1017SOL    HW1 3675   2.268   1.418   3.953 -0.2019 -1.1100  1.1651
 1017SOL    HW2 3676   2.196   1.272   3.972 -0.1404 -1.6341 -1.9836
 1018SOL     OW 3677   1.192   1.994   2.406 -0.8928  0.4070  0.0655
 1018SOL    HW1 3678   1.207   2.091   2.391 -1.1502  0.1647 -2.1440
 1018SOL    HW2 3679   1.096   1.977   2.426 -0.5940  0.7157  1.9325
 1019SOL     OW 3680   1.765   2.557   4.247  0.0445 -0.3590  0.0891
 1019SOL    HW1 3681   1.790   2.641   4.199 -0.0900 -0.8179 -0.7963
 1019SOL    HW2 3682   1.687   2.575   4.308  2.9369  1.3717  3.6843
 1020SOL     OW 3683   0.307   0.836   3.859  0.2276 -0.0736 -0.3344
 1020SOL    HW1 3684   0.215   0.874   3.851  0.3406  0.0399 -1.2833
 1020SOL    HW2 3685   0.374   0.907   3.837  0.4707 -0.5595 -1.2105
 1021SOL     OW 3686   0.819   1.794   2.884 -0.4707 -0.0812 -0.2294
 1021SOL    HW1 3687   0.870   1.877   2.860  0.0683 -0.2557  0.2691
 1021SOL    HW2 3688   0.824   1.729   2.809  0.3821 -0.2457 -0.0444
 1022SOL     OW 3689   1.028   3.739   0.027 -0.3084 -0.1856 -0.5771
 1022SOL    HW1 3690   1.120   3.761  -0.006 -0.0515 -0.4790 -0.0700
 1022SOL    HW2 3691   0.985   3.675  -0.037 -0.9224  1.4575 -1.8625
 1023SOL     OW 3692   3.420   1.385   4.844  0.0411 -0.3194 -0.6461
 1023SOL    HW1 3693   3.355   1.453   4.878  1.1170  0.7472 -0.6383
 1023SOL    HW2 3694   3.474   1.425   4.770  0.5041 -1.2704 -0.8366
 1024SOL     OW 3695   2.199   3.204   1.904  0.1919 -0.2243  0.2562
 1024SOL    HW1 3696   2.244   3.117   1.884 -0.1053 -0.3364  0.0598
 1024SOL    HW2 3697   2.166   3.203   1.999 -1.6101 -1.1516 -0.3344
 1025SOL     OW 3698   0.220   3.885   0.062 -0.7619 -0.0426  0.2401
 1025SOL    HW1 3699   0.272   3.831  -0.005 -0.4967 -0.0911  0.4813
 1025SOL    HW2 3700   0.148   3.935   0.015  0.4807  1.2645 -0.3551
 1026SOL     OW 3701   4.771   2.716   4.379  0.5026  0.2851 -0.0407
 1026SOL    HW1 3702   4.720   2.656   4.317 -0.5393 -0.2278  1.2593
 1026SOL    HW2 3703   4.868   2.717   4.352  0.5863 -2.0471 -0.0977
 1027SOL     OW 3704   2.805   3.183   1.322  0.2921  0.2425  0.4278
 1027SOL    HW1 3705   2.780   3.090   1.349 -0.1780  0.1095 -0.4036
 1027SOL    HW2 3706   2.760   3.205   1.235 -1.6653  2.1278  1.7790
 1028SOL     OW 3707   0.249   3.645   0.690  0.0319 -0.0513 -0.2984
 1028SOL    HW1 3708   0.231   3.579   0.763  0.2725 -0.7699 -0.8779
 1028SOL    HW2 3709   0.241   3.600   0.601  0.1904  0.7035 -0.7082
 1029SOL     OW 3710   1.371   3.117   0.242 -0.3683 -0.3981 -0.3094
 1029SOL    HW1 3711   1.368   3.126   0.143 -0.3420 -1.7579 -0.4554
 1029SOL    HW2 3712   1.374   3.208   0.284 -0.5181  0.1933 -1.5380
 1030SOL     OW 3713   0.967   1.380   1.571 -0.1915 -0.3093  0.5765
 1030SOL    HW1 3714   0.988   1.355   1.477  0.1131 -0.5906  0.7175
 1030SOL    HW2 3715   0.869   1.374   1.587 -0.0674 -2.1070  0.8015
 1031SOL     OW 3716   2.707   3.086   0.117  0.3185  0.8545  0.3097
 1031SOL    HW1 3717   2.698   2.993   0.080  0.0119  0.9987  0.0215
 1031SOL    HW2 3718   2.790   3.091   0.173 -0.1607  0.1302  1.1352
 1032SOL     OW 3719   3.128   2.507   4.385  0.2209  0.3280 -0.6186
 1032SOL    HW1 3720   3.073   2.583   4.352  0.5088  0.9337  0.2561
 1032SOL    HW2 3721   3.211   2.543   4.429 -0.3490 -0.3887  1.1380
 1033SOL     OW 3722   1.943   1.079   3.310 -0.5993  0.0429 -0.4015
 1033SOL    HW1 3723   1.969   1.097   3.215  0.9033 -0.7971 -0.1755
 1033SOL    HW2 3724   2.005   1.126   3.372  1.6832 -3.3343  0.1624
 1034SOL     OW 3725   1.598   4.135   1.748 -0.1766 -0.5745 -0.9554
 1034SOL    HW1 3726   1.529   4.063   1.755 -1.1660  0.4639  0.4553
 1034SOL    HW2 3727   1.555   4.221   1.720  0.7968 -0.2141 -1.4384
 1035SOL     OW 3728   3.206   0.899   4.442  0.2946 -0.0121  0.3597
 1035SOL    HW1 3729   3.198   0.951   4.528 -0.6200 -0.9955  0.8822
 1035SOL    HW2 3730   3.118   0.857   4.419  0.2897  0.9084 -1.5260
 1036SOL     OW 3731   3.978   4.735   1.607  0.5607 -0.3476  0.1620
 1036SOL    HW1 3732   3.993   4.834   1.613  2.5232 -0.6426  0.6482
 1036SOL    HW2 3733   3.934   4.713   1.520  1.1338  0.8346 -0.4427
 1037SOL     OW 3734   3.254   4.519   2.700 -0.0171 -0.1054  0.6747
 1037SOL    HW1 3735   3.213   4.583   2.766 -0.7351 -0.9074  1.0287
 1037SOL    HW2 3736   3.193   4.508   2.622  0.6210  0.4820  0.0703
 1038SOL     OW 3737   3.217   1.193   0.428 -0.6301  0.1823  0.0580
 1038SOL    HW1 3738   3.281   1.258   0.470  0.2601 -0.4506 -0.2818
 1038SOL    HW2 3739   3.255   1.101   0.434 -0.9961 -0.0682 -1.1619
 1039SOL     OW 3740   2.978   1.206   4.630 -0.2618  0.0210  0.1283
 1039SOL    HW1 3741   3.011   1.116   4.658 -0.5676  0.1168  0.8327
 1039SOL    HW2 3742   3.036   1.242   4.557  0.3332 -0.4161  0.3753
 1040SOL     OW 3743   1.001   2.035   4.407 -0.0241  0.3518 -0.3424
 1040SOL    HW1 3744   1.048   2.020   4.494  1.5492  0.6810 -1.1033
 1040SOL    HW2 3745   0.916   2.086   4.424 -0.5613 -0.9478  1.1507
 1041SOL     OW 3746   1.980   4.401   0.298  0.7091  0.2511  0.6287
 1041SOL    HW1 3747   1.914   4.335   0.334  2.2404 -1.2481  0.8755
 1041SOL    HW2 3748   2.045   4.426   0.370 -0.3629  2.7922  0.7806
 1042SOL     OW 3749   3.247   1.807   1.810 -0.1800  0.1940 -0.3694
 1042SOL    HW1 3750   3.215   1.816   1.905 -1.2297 -0.7135 -0.6103
 1042SOL    HW2 3751   3.311   1.881   1.789  0.0474  0.4282  1.0352
 1043SOL     OW 3752   3.893   2.994   2.902 -0.8729 -0.4697 -0.0892
 1043SOL    HW1 3753   3.901   2.899   2.932  0.4431 -0.1341  0.7310
 1043SOL    HW2 3754   3.811   3.004   2.846  0.4865 -2.7426 -2.7182
 1044SOL     OW 3755   3.190   3.549   1.313  0.1901  0.3951 -0.7932
 1044SOL    HW1 3756   3.275   3.497   1.308  0.0190  0.0327 -0.0909
 1044SOL    HW2 3757   3.123   3.498   1.367 -0.6375  0.4599 -1.7358
 1045SOL     OW 3758   3.229   0.120   1.139  0.5601  0.1794 -0.5478
 1045SOL    HW1 3759   3.202   0.064   1.217 -1.8980  0.2662 -1.2503
 1045SOL    HW2 3760   3.195   0.213   1.151  0.7326  0.3689 -1.4286
 1046SOL     OW 3761   0.987   2.650   4.349 -0.0323 -0.3250  0.2404
 1046SOL    HW1 3762   0.920   2.710   4.307 -0.1444 -0.9241 -0.4608
 1046SOL    HW2 3763   1.079   2.677   4.320 -0.0835 -0.4926 -0.0830
 1047SOL     OW 3764   0.660   0.192   1.496 -0.5830 -0.3014  0.3505
 1047SOL    HW1 3765   0.753   0.228   1.492 -1.0099  0.7868 -0.2614
 1047SOL    HW2 3766   0.643   0.154   1.588  0.3460 -0.2094  0.5674
 1048SOL     OW 3767   0.284   2.150   3.193  0.5184 -0.0949 -0.3893
 1048SOL    HW1 3768   0.234   2.117   3.113 -2.8808  0.3708  1.3441
 1048SOL    HW2 3769   0.287   2.250   3.192 -1.3658  0.0232  0.9604
 1049SOL     OW 3770   4.829   4.316   0.682 -0.1543  0.3944  0.1846
 1049SOL    HW1 3771   4.919   4.301   0.641  0.1527  1.2481  0.5267
 1049SOL    HW2 3772   4.827   4.405   0.728 -1.1601  0.3639  0.2274
 1050SOL     OW 3773   3.241   2.864   2.337 -0.2717 -0.0837 -0.1191
 1050SOL    HW1 3774   3.211   2.960   2.338 -1.2610 -0.3910  0.9644
 1050SOL    HW2 3775   3.259   2.836   2.243 -0.6114  0.9709 -0.5127
 1051SOL     OW 3776   3.649   3.793   1.158  0.5199 -0.4623 -0.3340
 1051SOL    HW1 3777   3.667   3.807   1.060 -0.2039 -1.0532 -0.5630
 1051SOL    HW2 3778   3.707   3.855   1.211  0.6064  0.1840 -1.1479
 1052SOL     OW 3779   0.427   3.312   4.762 -0.2116 -0.6010  0.0776
 1052SOL    HW1 3780   0.343   3.363   4.745  1.5299  2.7205  0.5371
 1052SOL    HW2 3781   0.428   3.282   4.857  0.2362  1.8529  0.9196
 1053SOL     OW 3782   0.508   1.739   1.113 -0.1937  0.1017  0.2215
 1053SOL    HW1 3783   0.480   1.711   1.021  0.7195 -1.2136  0.3228
 1053SOL    HW2 3784   0.448   1.813   1.145 -0.6572  0.4309 -1.3332
 1054SOL     OW 3785   1.333   2.102   3.040  0.3177 -0.3105  0.0007
 1054SOL    HW1 3786   1.413   2.155   3.069  1.0772 -2.5604  2.4123
 1054SOL    HW2 3787   1.251   2.140   3.084  0.5595  0.0009  0.1875
 1055SOL     OW 3788   0.348   1.897   1.240 -0.6054 -0.3003 -0.4072
 1055SOL    HW1 3789   0.370   1.912   1.336 -1.0825  0.4222 -0.4009
 1055SOL    HW2 3790   0.255   1.929   1.222  0.0221  1.0604 -1.4445
 1056SOL     OW 3791   4.848   1.042   4.295 -0.0233 -0.0547 -0.0219
 1056SOL    HW1 3792   4.836   1.086   4.383  0.8010  0.5353 -0.1921
 1056SOL    HW2 3793   4.812   0.948   4.299  0.3624 -0.1689  1.0469
 1057SOL     OW 3794   4.286   0.200   0.761  0.4419  0.0379  0.3725
 1057SOL    HW1 3795   4.230   0.123   0.791  2.4814 -1.4821  0.4869
 1057SOL    HW2 3796   4.361   0.214   0.826 -0.0303  2.3377  0.4984
 1058SOL     OW 3797   0.144   1.584   3.987  0.4152 -0.2378  0.2927
 1058SOL    HW1 3798   0.159   1.528   3.906 -0.8489  1.0614 -0.9083
 1058SOL    HW2 3799   0.231   1.603   4.032  0.9841 -2.1050  0.0331
 1059SOL     OW 3800   2.977   2.718   1.899 -0.2605 -0.0077  0.6914
 1059SOL    HW1 3801   3.009   2.659   1.974 -0.7153 -1.5896 -0.2979
 1059SOL    HW2 3802   2.980   2.667   1.813 -0.8020  1.4073 -0.2041
 1060SOL     OW 3803   3.724   3.530   0.734 -0.2025  0.0550 -0.4294
 1060SOL    HW1 3804   3.816   3.567   0.727 -0.5835  0.8872 -1.1318
 1060SOL    HW2 3805   3.657   3.603   0.722 -0.9610 -0.5760 -0.1522
 1061SOL     OW 3806   0.088   4.434   2.384 -0.1149 -0.1571  0.0516
 1061SOL    HW1 3807   0.085   4.366   2.456  1.2877  1.0502  1.3006
 1061SOL    HW2 3808   0.098   4.389   2.295  0.2609 -1.5773  0.7984
 1062SOL     OW 3809   4.415   1.653   4.571 -0.2268  0.1268 -0.0437
 1062SOL    HW1 3810   4.391   1.718   4.499  0.0267 -0.3919 -0.6094
 1062SOL    HW2 3811   4.367   1.566   4.556  0.0719 -0.0902  0.2288
 1063SOL     OW 3812   3.150   2.639   2.452 -0.4513  0.0377 -0.8719
 1063SOL    HW1 3813   3.196   2.555   2.422  1.2025  0.4834  0.2791
 1063SOL    HW2 3814   3.191   2.717   2.405 -1.6660  0.2667 -1.5885
 1064SOL     OW 3815   0.714   2.722   2.683  0.2228 -0.1472  0.1736
 1064SOL    HW1 3816   0.680   2.638   2.725 -0.6149  1.4257  2.8622
 1064SOL    HW2 3817   0.651   2.751   2.611 -2.3816  0.7984  2.6668
 1065SOL     OW 3818   1.710   3.374   4.862  0.1405 -0.0412  0.2036
 1065SOL    HW1 3819   1.781   3.421   4.809 -0.8385  0.3770 -0.7961
 1065SOL    HW2 3820   1.665   3.440   4.922 -0.9409  0.2294 -0.8758
 1066SOL     OW 3821   1.447   2.317   1.628 -0.0240 -0.1355  0.1616
 1066SOL    HW1 3822   1.375   2.248   1.637  0.2461 -0.2667  1.5331
 1066SOL    HW2 3823   1.535   2.278   1.655  0.1063  0.7742  1.1081
 1067SOL     OW 3824   3.841   0.662   4.749  0.7509 -0.7268  0.4332
 1067SOL    HW1 3825   3.770   0.592   4.744  0.5805 -0.4936 -0.5538
 1067SOL    HW2 3826   3.889   0.655   4.837  1.9044 -3.1861 -0.3223
 1068SOL     OW 3827   4.250   4.826   2.306  0.4500  0.4400  0.1381
 1068SOL    HW1 3828   4.165   4.777   2.287 -1.0354  2.8450  0.1152
 1068SOL    HW2 3829   4.324   4.787   2.252 -0.7412 -1.3823 -0.2624
 1069SOL     OW 3830   4.194   2.203   1.408  0.4737  0.1353 -0.0789
 1069SOL    HW1 3831   4.285   2.231   1.380 -0.0699  1.1043 -0.9567
 1069SOL    HW2 3832   4.126   2.260   1.362 -0.5556 -0.0462  1.1487
 1070SOL     OW 3833   2.814   1.695   0.981  0.4412 -0.3135  0.4320
 1070SOL    HW1 3834   2.776   1.614   0.937 -1.2444  0.0444  1.1702
 1070SOL    HW2 3835   2.911   1.703   0.958  0.7221 -2.6963  0.6004
 1071SOL     OW 3836   4.799   0.473   2.111  0.3809  0.0005  0.5927
 1071SOL    HW1 3837   4.875   0.409   2.112  2.0923  1.9346  1.7498
 1071SOL    HW2 3838   4.738   0.454   2.188  0.5196 -0.5979  0.5587
 1072SOL     OW 3839   1.904   4.881   4.458 -0.0628  0.1832  0.0686
 1072SOL    HW1 3840   1.948   4.881   4.548 -1.4068 -0.3276  0.7724
 1072SOL    HW2 3841   1.840   4.804   4.454  1.0535 -0.7083 -1.8990
 1073SOL     OW 3842   2.239   0.724   4.399  0.4055  0.7377 -0.0780
 1073SOL    HW1 3843   2.318   0.671   4.430 -0.1008  0.5594  0.9331
 1073SOL    HW2 3844   2.156   0.669   4.410  0.1010  1.0143 -0.9064
 1074SOL     OW 3845   2.653   2.700   0.315 -0.6875 -0.2639  0.1437
 1074SOL    HW1 3846   2.610   2.713   0.404 -1.9427 -0.8407 -0.3583
 1074SOL    HW2 3847   2.752   2.713   0.324 -0.7154 -0.9145  1.7368
 1075SOL     OW 3848   1.674   0.830   2.315  0.3799 -0.8102  0.5466
 1075SOL    HW1 3849   1.705   0.924   2.299  0.0526 -0.5771  1.2356
 1075SOL    HW2 3850   1.656   0.786   2.227 -0.2397  0.0358  0.2355
 1076SOL     OW 3851   4.061   2.073   4.200 -0.2647 -0.1744 -0.0999
 1076SOL    HW1 3852   4.015   2.020   4.128 -0.7551  0.1121 -0.0001
 1076SOL    HW2 3853   4.026   2.166   4.201 -1.5250 -0.6178  1.6207
 1077SOL     OW 3854   4.046   4.255   3.605  0.1591 -0.1886 -0.0415
 1077SOL    HW1 3855   4.126   4.282   3.550  0.8325 -1.1634  0.4368
 1077SOL    HW2 3856   3.968   4.241   3.544  0.2578  1.0530 -0.4878
 1078SOL     OW 3857   3.006   4.630   4.366 -0.6433  0.2748  0.3783
 1078SOL    HW1 3858   3.043   4.715   4.405  1.4009 -0.0523 -0.7015
 1078SOL    HW2 3859   2.917   4.648   4.324  0.0556  2.0672 -0.4369
 1079SOL     OW 3860   1.546   1.214   0.001  0.1682  0.3964  0.3007
 1079SOL    HW1 3861   1.614   1.256   0.061 -0.4199 -0.3250  1.5073
 1079SOL    HW2 3862   1.455   1.220   0.044 -0.3722  0.3741 -0.7905
 1080SOL     OW 3863   0.569   1.998   3.508 -0.5698 -0.2780  0.1255
 1080SOL    HW1 3864   0.569   2.008   3.409 -1.1999 -0.5844  0.0887
 1080SOL    HW2 3865   0.550   2.086   3.551  0.0731 -0.0680 -0.0108
 1081SOL     OW 3866   3.999   2.734   0.930  0.6044  0.1735  0.5453
 1081SOL    HW1 3867   4.020   2.751   0.833  1.6347 -0.1489  0.6979
 1081SOL    HW2 3868   4.075   2.685   0.972  1.3435  2.4860  2.1387
 1082SOL     OW 3869   3.963   1.301   1.149 -0.2466  0.3260  0.5662
 1082SOL    HW1 3870   3.991   1.317   1.054 -0.0932 -0.5698  0.4532
 1082SOL    HW2 3871   3.914   1.214   1.156  1.8626 -0.8505  1.6904
 1083SOL     OW 3872   2.603   1.740   2.198 -0.1309 -0.3617 -0.1817
 1083SOL    HW1 3873   2.518   1.702   2.162  0.0488 -0.2681 -0.7034
 1083SOL    HW2 3874   2.613   1.834   2.167 -0.0155 -0.2517  0.1837
 1084SOL     OW 3875   1.543   0.430   4.253 -0.2651 -0.0516 -0.2907
 1084SOL    HW1 3876   1.493   0.510   4.220  0.2597  0.2031 -0.4789
 1084SOL    HW2 3877   1.500   0.347   4.217  0.4418  0.2268 -1.8562
 1085SOL     OW 3878   0.785   1.361   4.859 -0.0436  0.1081  0.5274
 1085SOL    HW1 3879   0.784   1.339   4.761  0.4684  2.3338 -0.0348
 1085SOL    HW2 3880   0.848   1.299   4.906  0.8234 -0.0737 -0.8032
 1086SOL     OW 3881   2.035   2.165   4.206 -0.0982  0.0444  0.4798
 1086SOL    HW1 3882   2.046   2.263   4.221  0.9203  0.0360 -0.1105
 1086SOL    HW2 3883   2.037   2.117   4.294 -1.4020  0.6050  0.8380
 1087SOL     OW 3884   1.910   2.733   2.147  0.4009 -0.7842  0.2539
 1087SOL    HW1 3885   1.963   2.818   2.150 -0.9145  0.0821 -0.0609
 1087SOL    HW2 3886   1.878   2.717   2.054 -2.7759  0.6318  0.9588
 1088SOL     OW 3887   1.351   4.870   3.518 -0.2293  0.4071 -0.2285
 1088SOL    HW1 3888   1.396   4.954   3.488 -0.6506 -0.0830 -2.4222
 1088SOL    HW2 3889   1.259   4.866   3.479 -0.5914 -0.6191  0.6713
 1089SOL     OW 3890   2.242   0.979   2.972  0.2305  0.7106 -0.0894
 1089SOL    HW1 3891   2.309   1.026   2.913 -1.5708  0.8694 -2.1314
 1089SOL    HW2 3892   2.178   1.046   3.010 -1.7042  0.1438 -2.1505
 1090SOL     OW 3893   0.273   2.289   0.192  0.1733 -0.1866  0.9729
 1090SOL    HW1 3894   0.221   2.246   0.266  1.1357 -2.2806  0.4887
 1090SOL    HW2 3895   0.364   2.313   0.225  0.6857 -1.3337  0.4593
 1091SOL     OW 3896   4.728   0.479   4.230  0.5417 -0.2904  0.2074
 1091SOL    HW1 3897   4.687   0.436   4.149  1.2116 -1.2216  0.3378
 1091SOL    HW2 3898   4.661   0.482   4.304  0.4850 -1.1821  0.2059
 1092SOL     OW 3899   2.408   4.827   2.922  0.3475 -0.4165 -0.1221
 1092SOL    HW1 3900   2.441   4.899   2.983 -1.3275 -0.1145  0.4818
 1092SOL    HW2 3901   2.405   4.862   2.828  0.3453  0.0225  0.0388
 1093SOL     OW 3902   0.165   2.199   1.836  0.0932  0.4735 -0.3264
 1093SOL    HW1 3903   0.179   2.198   1.737  0.0005 -0.5856 -0.3383
 1093SOL    HW2 3904   0.125   2.287   1.863 -0.3526  0.5813 -1.2940
 1094SOL     OW 3905   0.239   2.932   1.926  0.0092 -0.0626 -0.2958
 1094SOL    HW1 3906   0.144   2.908   1.903 -0.0782  0.8027 -0.9167
 1094SOL    HW2 3907   0.246   2.949   2.024 -0.7067  0.8085 -0.3831
 1095SOL     OW 3908   2.753   2.877   4.112 -0.0165 -0.2219 -0.0478
 1095SOL    HW1 3909   2.749   2.811   4.037  2.3852 -1.8215  1.0961
 1095SOL    HW2 3910   2.820   2.948   4.091 -0.9282  0.5651 -0.3162
 1096SOL     OW 3911   2.463   0.107   3.122  0.2797  0.2856  0.1829
 1096SOL    HW1 3912   2.536   0.132   3.185  0.5559  0.3196 -0.1464
 1096SOL    HW2 3913   2.377   0.147   3.153  0.1753 -0.7009  1.2039
 1097SOL     OW 3914   4.731   4.153   1.467 -0.6188 -0.2516  0.3883
 1097SOL    HW1 3915   4.810   4.215   1.464 -1.5535  0.9277 -1.6003
 1097SOL    HW2 3916   4.741   4.083   1.396 -1.1818 -0.3069  0.3619
 1098SOL     OW 3917   4.763   0.699   2.298  0.5371 -0.2422  0.2720
 1098SOL    HW1 3918   4.769   0.629   2.226 -0.1729  0.7384 -0.7718
 1098SOL    HW2 3919   4.699   0.668   2.369  1.8769 -1.5898  0.9604
 1099SOL     OW 3920   0.867   2.360   4.263  0.0420  0.1369 -0.4321
 1099SOL    HW1 3921   0.831   2.313   4.344  2.1123 -1.7117 -0.4878
 1099SOL    HW2 3922   0.882   2.456   4.285 -4.2243  0.9593 -0.2756
 1100SOL     OW 3923   4.839   4.803   1.951 -0.5923 -0.3912  0.3192
 1100SOL    HW1 3924   4.759   4.813   1.891 -0.0640  0.2149 -0.3077
 1100SOL    HW2 3925   4.808   4.783   2.044 -1.5181  0.5628  0.2462
 1101SOL     OW 3926   1.107   1.095   2.716 -0.0598 -0.5055 -0.2460
 1101SOL    HW1 3927   1.180   1.030   2.738 -0.7905 -0.5976  2.1272
 1101SOL    HW2 3928   1.031   1.084   2.780 -2.6998 -1.0971 -3.1702
 1102SOL     OW 3929   4.227   4.741   4.202  0.1307 -0.1265  0.2614
 1102SOL    HW1 3930   4.228   4.661   4.142 -3.3158  0.3173 -0.6516
 1102SOL    HW2 3931   4.266   4.819   4.153  1.7472 -0.8007  0.4391
 1103SOL     OW 3932   0.232   2.936   1.634  0.4601  0.6409 -0.1491
 1103SOL    HW1 3933   0.308   2.886   1.591 -0.8782 -1.2396 -0.4370
 1103SOL    HW2 3934   0.235   2.924   1.733 -0.6088 -1.2285 -0.3014
 1104SOL     OW 3935   2.011   3.457   1.533  0.1178 -0.0468  0.6630
 1104SOL    HW1 3936   2.041   3.550   1.551 -0.3972  0.2885 -0.1746
 1104SOL    HW2 3937   1.995   3.445   1.435 -0.4213 -0.8347  0.8373
 1105SOL     OW 3938   1.539   0.120   2.514 -0.0212  0.0706 -0.4606
 1105SOL    HW1 3939   1.614   0.099   2.577 -0.8713 -0.4314  0.4201
 1105SOL    HW2 3940   1.574   0.124   2.420  1.3241  1.0730  0.0449
 1106SOL     OW 3941   3.831   1.131   0.507  0.0601 -0.5374  0.0768
 1106SOL    HW1 3942   3.809   1.067   0.433  0.9028 -0.9206  0.1407
 1106SOL    HW2 3943   3.894   1.086   0.572  0.1829  0.1566  0.4443
 1107SOL     OW 3944   4.026   1.752   2.805 -0.6808 -0.2719 -0.5323
 1107SOL    HW1 3945   4.022   1.725   2.709 -0.1814 -0.1243 -0.6013
 1107SOL    HW2 3946   3.949   1.812   2.826 -2.2089 -2.2667 -0.1934
 1108SOL     OW 3947   2.259   2.527   2.655  0.4714  0.3438  0.1405
 1108SOL    HW1 3948   2.343   2.507   2.603  0.8937 -0.8314  1.2415
 1108SOL    HW2 3949   2.183   2.537   2.591  1.3027  0.6995 -0.8304
 1109SOL     OW 3950   1.598   3.882   2.008 -0.1481 -0.2755 -0.4276
 1109SOL    HW1 3951   1.694   3.909   2.001 -0.1778 -0.0898 -0.1003
 1109SOL    HW2 3952   1.552   3.898   1.921 -0.1285  0.5747 -0.2819
 1110SOL     OW 3953   0.553   4.029   1.617 -0.5361  0.1837 -0.4322
 1110SOL    HW1 3954   0.479   4.020   1.551 -0.1914  1.1470 -0.9657
 1110SOL    HW2 3955   0.562   4.125   1.643 -1.7217 -0.3213  2.2434
 1111SOL     OW 3956   3.321   4.277   1.616 -0.4278 -0.2402  0.7492
 1111SOL    HW1 3957   3.299   4.250   1.522 -0.9895 -1.4261  1.1943
 1111SOL    HW2 3958   3.404   4.229   1.645  0.2921  0.8643  0.5442
 1112SOL     OW 3959   1.384   3.951   0.900 -0.7979 -0.4040 -0.3538
 1112SOL    HW1 3960   1.300   3.938   0.953 -1.4278 -0.6633 -1.3826
 1112SOL    HW2 3961   1.442   3.870   0.910 -0.0925  0.2675  1.3240
 1113SOL     OW 3962   1.876   0.137   0.898 -0.7530 -0.1528  0.4645
 1113SOL    HW1 3963   1.809   0.209   0.914  1.2763  2.1442 -0.7245
 1113SOL    HW2 3964   1.829   0.053   0.870 -3.1387  1.1564  0.3190
 1114SOL     OW 3965   2.404   3.220   0.978  0.2189  0.4293  0.4958
 1114SOL    HW1 3966   2.347   3.140   0.996  1.0490  0.3117  2.9387
 1114SOL    HW2 3967   2.485   3.218   1.037  0.2096  3.1208  0.7336
 1115SOL     OW 3968   2.303   2.443   2.158  0.2092  0.1547 -0.2468
 1115SOL    HW1 3969   2.256   2.492   2.085  0.1632  0.6011  0.0759
 1115SOL    HW2 3970   2.345   2.509   2.221  2.8765 -0.1813 -1.5184
 1116SOL     OW 3971   1.235   4.548   3.456  0.3264  0.1038  0.0267
 1116SOL    HW1 3972   1.313   4.532   3.517  0.8809  0.5561 -0.5548
 1116SOL    HW2 3973   1.154   4.567   3.511  0.9016  0.8863  0.6295
 1117SOL     OW 3974   4.056   3.583   4.455  0.1119 -0.1735  0.7745
 1117SOL    HW1 3975   3.974   3.534   4.486 -0.5128 -0.0362 -0.5632
 1117SOL    HW2 3976   4.120   3.594   4.531 -1.6882  0.8937  2.2226
 1118SOL     OW 3977   2.211   2.629   1.977 -0.3656 -0.4648 -0.1088
 1118SOL    HW1 3978   2.207   2.705   2.042  2.7924 -0.7799  0.6240
 1118SOL    HW2 3979   2.259   2.658   1.894  1.4480 -1.6913  0.4287
 1119SOL     OW 3980   2.851   2.051   1.411  0.5515  0.0848  0.7561
 1119SOL    HW1 3981   2.865   2.136   1.361 -2.8627 -0.0639 -0.7840
 1119SOL    HW2 3982   2.864   2.066   1.509 -2.5009  3.1890  0.8746
 1120SOL     OW 3983   3.603   4.692   1.266 -0.7121  0.1409 -1.0333
 1120SOL    HW1 3984   3.560   4.776   1.299 -0.7766  0.3862 -1.7193
 1120SOL    HW2 3985   3.613   4.627   1.342 -1.7607  0.3014 -0.7393
 1121SOL     OW 3986   4.242   1.042   4.466  0.2429  0.0683  0.5019
 1121SOL    HW1 3987   4.313   1.057   4.397 -0.4683 -1.3637 -0.6267
 1121SOL    HW2 3988   4.279   0.987   4.540 -0.0732 -2.3290 -0.9990
 1122SOL     OW 3989   1.327   0.100   3.913 -0.0745 -0.1473 -0.5685
 1122SOL    HW1 3990   1.292   0.006   3.923 -0.5490  0.0298 -0.5529
 1122SOL    HW2 3991   1.381   0.124   3.994  1.5422 -1.0289 -1.3309
 1123SOL     OW 3992   2.908   4.763   3.853 -0.0489 -0.3779  0.8287
 1123SOL    HW1 3993   2.824   4.738   3.805  0.3495 -2.4702  1.1594
 1123SOL    HW2 3994   2.942   4.685   3.905  1.8075  0.5987  1.1782
 1124SOL     OW 3995   0.774   2.192   0.493  0.0320  0.3295  0.5780
 1124SOL    HW1 3996   0.788   2.241   0.579 -0.3836 -0.4996  1.1343
 1124SOL    HW2 3997   0.777   2.256   0.417  4.1129  0.6509  0.8127
 1125SOL     OW 3998   0.005   0.956   1.562  0.1349 -0.1271 -0.1871
 1125SOL    HW1 3999  -0.094   0.948   1.547 -0.1475  0.0053  1.4420
 1125SOL    HW2 4000   0.053   0.891   1.503 -0.8639  0.2975 -1.5164
 1126SOL     OW 4001   1.985   2.892   3.152 -0.0548  0.1924  0.2537
 1126SOL    HW1 4002   2.008   2.845   3.237 -0.6929 -0.3688  0.1179
 1126SOL    HW2 4003   1.991   2.827   3.076  2.3111  1.0931 -0.4102
 1127SOL     OW 4004   4.794   1.522   0.812  0.4986  0.2861 -0.8222
 1127SOL    HW1 4005   4.827   1.554   0.901 -0.6714 -1.6727  0.3978
 1127SOL    HW2 4006   4.695   1.507   0.817  0.3450  0.4736 -2.5989
 1128SOL     OW 4007   3.992   0.690   3.298  0.2594 -0.4513 -0.0059
 1128SOL    HW1 4008   4.035   0.601   3.281  0.4734 -0.4735  0.6391
 1128SOL    HW2 4009   4.032   0.732   3.380 -1.3972 -0.7574  1.0017
 1129SOL     OW 4010   4.230   0.007   2.586  0.7728  0.3712 -0.3695
 1129SOL    HW1 4011   4.247  -0.029   2.494 -0.3544 -0.8292 -0.1448
 1129SOL    HW2 4012   4.166  -0.053   2.634  2.1286  0.3961  1.5876
 1130SOL     OW 4013   3.245   0.294   3.338  0.0782 -0.1601 -0.2180
 1130SOL    HW1 4014   3.240   0.208   3.287  1.2841 -0.2230 -0.2757
 1130SOL    HW2 4015   3.332   0.297   3.388 -0.1082  0.8797  0.0586
 1131SOL     OW 4016   1.004   2.345   2.139 -0.7564 -0.2178 -0.3095
 1131SOL    HW1 4017   1.026   2.248   2.124  1.8214  0.4158 -1.0689
 1131SOL    HW2 4018   0.905   2.358   2.132 -1.1073 -2.6883 -0.7946
 1132SOL     OW 4019   1.914   3.064   0.032 -0.2615 -0.0671 -0.0881
 1132SOL    HW1 4020   1.937   3.006   0.110 -1.7565 -1.0495 -0.3196
 1132SOL    HW2 4021   1.836   3.122   0.056  1.9542  2.8864  0.5652
 1133SOL     OW 4022   3.237   2.335   3.201 -0.5318  0.0857 -0.2589
 1133SOL    HW1 4023   3.243   2.241   3.233  0.2775  0.5533  1.0570
 1133SOL    HW2 4024   3.155   2.347   3.145 -0.9267 -1.2589  0.0116
 1134SOL     OW 4025   1.853   3.388   1.111 -0.2220  0.5550  0.1347
 1134SOL    HW1 4026   1.788   3.459   1.086  0.5796  0.7401 -1.5636
 1134SOL    HW2 4027   1.876   3.333   1.031  1.8439  0.6224  0.6007
 1135SOL     OW 4028   2.695   4.597   1.582  0.1105  0.0341 -0.1068
 1135SOL    HW1 4029   2.678   4.649   1.499  0.8778  1.9076  0.8552
 1135SOL    HW2 4030   2.629   4.624   1.652 -0.6665 -1.6739 -0.1197
 1136SOL     OW 4031   1.309   1.327   0.921 -0.0592  0.6939 -0.3527
 1136SOL    HW1 4032   1.230   1.377   0.886 -0.4732  0.0178 -0.3905
 1136SOL    HW2 4033   1.373   1.311   0.846 -0.5568 -0.0186 -0.6295
 1137SOL     OW 4034   1.841   0.282   4.447 -0.5961 -0.1266 -0.0280
 1137SOL    HW1 4035   1.842   0.182   4.450 -0.6442 -0.1077  1.0124
 1137SOL    HW2 4036   1.770   0.317   4.509 -0.3093  0.5666 -0.0796
 1138SOL     OW 4037   1.394   4.676   4.233 -0.2503 -0.6214 -0.3224
 1138SOL    HW1 4038   1.321   4.657   4.167 -1.0414 -1.9242  0.8517
 1138SOL    HW2 4039   1.480   4.688   4.185 -0.7259 -1.9560 -1.5868
 1139SOL     OW 4040   3.291   2.945   4.279  0.7911  0.3347  0.4463
 1139SOL    HW1 4041   3.256   3.029   4.238  1.1749  0.5494  0.5549
 1139SOL    HW2 4042   3.218   2.901   4.332 -0.0018 -0.4358 -1.1813
 1140SOL     OW 4043   2.829   3.027   4.408 -0.3536 -0.3606  0.3881
 1140SOL    HW1 4044   2.817   3.051   4.504  2.9685 -0.7222  0.9890
 1140SOL    HW2 4045   2.851   2.930   4.399  1.3194  0.0626 -0.4979
 1141SOL     OW 4046   1.185   2.784   4.745 -0.1452 -0.1137  0.2106
 1141SOL    HW1 4047   1.180   2.687   4.724 -0.6150 -0.1935  0.6703
 1141SOL    HW2 4048   1.178   2.837   4.660 -2.2564 -0.4190  0.1399
 1142SOL     OW 4049   0.456   0.711   4.578  0.0712 -0.3086  0.4948
 1142SOL    HW1 4050   0.373   0.690   4.629 -0.0550 -0.3668  0.2664
 1142SOL    HW2 4051   0.517   0.632   4.581  0.8297  0.2928  2.0314
 1143SOL     OW 4052   4.621   2.608   0.546  0.0436 -0.3051 -0.4175
 1143SOL    HW1 4053   4.619   2.624   0.447 -0.3545  1.5102 -0.1635
 1143SOL    HW2 4054   4.528   2.601   0.581  0.1645 -0.3533 -0.1020
 1144SOL     OW 4055   1.880   1.576   2.060 -0.5913  0.0231 -0.1512
 1144SOL    HW1 4056   1.877   1.519   2.142  0.1482  0.2454  0.0326
 1144SOL    HW2 4057   1.973   1.579   2.023 -0.8842  0.0475 -0.9164
 1145SOL     OW 4058   3.822   4.651   4.435 -0.1806 -0.3827 -0.3413
 1145SOL    HW1 4059   3.756   4.593   4.386  1.4269 -2.1474 -0.5267
 1145SOL    HW2 4060   3.802   4.747   4.416 -1.7636 -0.9018 -1.5749
 1146SOL     OW 4061   2.727   3.932   3.067 -0.0952  0.1285 -0.2085
 1146SOL    HW1 4062   2.750   3.836   3.081  0.6713  0.5063  1.2334
 1146SOL    HW2 4063   2.679   3.968   3.147  2.0154  1.6379  0.4592
 1147SOL     OW 4064   3.124   4.296   4.750 -0.5562 -0.1085  0.0459
 1147SOL    HW1 4065   3.078   4.269   4.835 -1.8137 -1.1929 -0.9338
 1147SOL    HW2 4066   3.073   4.371   4.707 -0.3472 -0.0674 -0.1306
 1148SOL     OW 4067   4.044   0.507   3.630 -0.0489  0.0550 -0.1388
 1148SOL    HW1 4068   4.070   0.546   3.719  0.4065  1.2990 -0.7949
 1148SOL    HW2 4069   3.985   0.572   3.582  0.1864 -0.3574 -0.9983
 1149SOL     OW 4070   2.730   1.309   0.300 -0.2953 -0.3419  0.2452
 1149SOL    HW1 4071   2.762   1.262   0.218  0.4663  0.5053  0.0383
 1149SOL    HW2 4072   2.653   1.368   0.276  0.5598  0.6673 -0.0830
 1150SOL     OW 4073   3.192   2.003   4.173 -0.5645  0.2133 -0.3964
 1150SOL    HW1 4074   3.217   2.098   4.192 -2.9773  1.0056 -0.8338
 1150SOL    HW2 4075   3.133   1.968   4.246  0.4597 -1.0630 -0.1351
 1151SOL     OW 4076   2.617   3.548   1.684 -0.2571 -0.1900  0.0103
 1151SOL    HW1 4077   2.610   3.587   1.776  0.8616 -0.7363  0.3378
 1151SOL    HW2 4078   2.615   3.449   1.689 -1.4337 -0.2223 -0.6842
 1152SOL     OW 4079   4.839   3.441   1.318 -0.2095 -0.5079  0.1720
 1152SOL    HW1 4080   4.838   3.421   1.416 -0.6738  0.7908  0.4490
 1152SOL    HW2 4081   4.894   3.523   1.302 -1.6455  0.3660 -0.4226
 1153SOL     OW 4082   2.366   1.492   2.466 -0.0864  0.9228  0.4102
 1153SOL    HW1 4083   2.366   1.448   2.376 -0.0920 -1.0200  1.3154
 1153SOL    HW2 4084   2.439   1.454   2.522 -1.5432  0.3694  2.0109
 1154SOL     OW 4085   0.912   1.009   1.662 -0.2970 -0.3455  0.1009
 1154SOL    HW1 4086   0.895   1.028   1.758 -0.9096  0.4844 -0.1551
 1154SOL    HW2 4087   0.825   0.993   1.615 -0.3053  1.8717 -0.8097
 1155SOL     OW 4088   3.559   4.548   3.076 -0.2464  0.0035 -0.2478
 1155SOL    HW1 4089   3.655   4.558   3.103  0.0949 -1.2736 -0.9270
 1155SOL    HW2 4090   3.520   4.468   3.121 -0.9977  0.5101  0.0075
 1156SOL     OW 4091   1.855   3.129   4.649 -0.4324 -0.1661  0.3173
 1156SOL    HW1 4092   1.846   3.104   4.745  1.7517 -1.0211  0.3628
 1156SOL    HW2 4093   1.890   3.223   4.643 -2.1693  0.5232  0.2716
 1157SOL     OW 4094   0.602   4.625   0.202 -0.0440  0.0308  0.0717
 1157SOL    HW1 4095   0.676   4.674   0.248 -1.0019  1.5868  0.0406
 1157SOL    HW2 4096   0.612   4.637   0.103  0.2207 -0.6327  0.0107
 1158SOL     OW 4097   3.378   2.888   0.446 -0.0040 -0.1720 -0.4579
 1158SOL    HW1 4098   3.476   2.898   0.459 -0.0190 -0.6458  0.0901
 1158SOL    HW2 4099   3.353   2.792   0.459 -0.8586  0.2867  1.7347
 1159SOL     OW 4100   4.608   3.051   3.984 -0.2354 -0.4356  0.7398
 1159SOL    HW1 4101   4.595   3.005   3.896  2.1953  0.0106  0.0846
 1159SOL    HW2 4102   4.622   2.983   4.056 -0.6327 -0.7688  0.5061
 1160SOL     OW 4103   4.598   1.268   2.265  0.4637  0.1533  0.1569
 1160SOL    HW1 4104   4.661   1.253   2.342  1.1562 -1.8520 -0.7298
 1160SOL    HW2 4105   4.614   1.358   2.226  0.0506  1.2685  2.3594
 1161SOL     OW 4106   1.551   0.258   1.257  0.6152 -1.0591  0.3029
 1161SOL    HW1 4107   1.519   0.353   1.252  1.3125 -0.8306  0.0260
 1161SOL    HW2 4108   1.647   0.257   1.286  0.3968 -1.7232  1.0252
 1162SOL     OW 4109   3.242   2.705   3.014  0.5967  0.1309 -0.2751
 1162SOL    HW1 4110   3.313   2.687   2.946 -0.0291 -1.5103 -0.5362
 1162SOL    HW2 4111   3.173   2.767   2.975  1.4499  1.0907 -0.2914
 1163SOL     OW 4112   2.025   0.583   3.261  0.5485 -0.4222  0.1210
 1163SOL    HW1 4113   2.029   0.497   3.311 -0.8071  0.0425  1.0565
 1163SOL    HW2 4114   2.040   0.660   3.324  0.1574  0.1069 -0.4169
 1164SOL     OW 4115   0.600   4.652   4.344 -0.5783 -0.1897 -0.0858
 1164SOL    HW1 4116   0.515   4.705   4.354 -0.6068 -0.1829 -0.3514
 1164SOL    HW2 4117   0.585   4.578   4.278 -0.6300 -0.7264  0.5214
 1165SOL     OW 4118   0.855   4.248   1.744  0.4015  0.8462 -0.0389
 1165SOL    HW1 4119   0.819   4.199   1.824 -0.9709 -0.6187 -1.4705
 1165SOL    HW2 4120   0.952   4.266   1.757  0.3499  0.0747  1.6973
 1166SOL     OW 4121   2.310   4.867   4.572  0.1934  0.2801 -0.4336
 1166SOL    HW1 4122   2.332   4.843   4.667  0.4863  1.7640 -0.0998
 1166SOL    HW2 4123   2.394   4.874   4.519  0.0021 -1.0593 -0.9676
 1167SOL     OW 4124   1.571   1.673   0.339  0.1018 -0.1001  0.1844
 1167SOL    HW1 4125   1.628   1.748   0.306 -0.3749  0.4950  0.6840
 1167SOL    HW2 4126   1.539   1.694   0.432 -0.9197 -0.4092 -0.0823
 1168SOL     OW 4127   2.024   2.439   4.206 -0.2537  0.0114  0.5883
 1168SOL    HW1 4128   2.067   2.509   4.149  2.5121 -1.8377  0.2050
 1168SOL    HW2 4129   1.928   2.462   4.220  0.4443  3.7251  0.3226
 1169SOL     OW 4130   4.896   3.458   0.970 -0.0457 -0.9426  0.4695
 1169SOL    HW1 4131   4.951   3.450   1.053  1.5269  1.3970 -0.2427
 1169SOL    HW2 4132   4.951   3.432   0.891 -0.6158 -0.5299 -0.0751
 1170SOL     OW 4133   0.966   0.362   4.327 -0.1261  0.0128 -0.2019
 1170SOL    HW1 4134   1.056   0.321   4.344 -0.8566 -2.0246 -0.9340
 1170SOL    HW2 4135   0.946   0.358   4.229 -1.3580 -0.3434  0.0500
 1171SOL     OW 4136   4.606   4.905   1.802  0.0490 -0.7193  0.2997
 1171SOL    HW1 4137   4.630   4.848   1.723 -0.4304  0.2564 -0.5588
 1171SOL    HW2 4138   4.509   4.928   1.799  0.4552  1.0641  0.0152
 1172SOL     OW 4139   4.643   2.804   1.341  0.2894  0.0585 -0.1526
 1172SOL    HW1 4140   4.696   2.794   1.426 -1.3467 -0.8860  0.8119
 1172SOL    HW2 4141   4.706   2.820   1.265  1.8455  0.4573  1.1451
 1173SOL     OW 4142   4.301   4.448   2.880  0.5518  0.3744 -0.1071
 1173SOL    HW1 4143   4.365   4.514   2.918 -0.1334  1.8506 -1.3626
 1173SOL    HW2 4144   4.227   4.430   2.945  1.3272 -0.0271  0.6735
 1174SOL     OW 4145   1.916   0.104   1.872 -0.3606  0.3364  0.1195
 1174SOL    HW1 4146   1.858   0.055   1.807  0.3704  0.7265 -0.8639
 1174SOL    HW2 4147   1.945   0.041   1.945 -1.0327 -0.1631 -0.0351
 1175SOL     OW 4148   1.603   4.401   3.856 -0.5003  0.2523  0.4031
 1175SOL    HW1 4149   1.643   4.332   3.795  0.0230  0.9617 -0.0713
 1175SOL    HW2 4150   1.612   4.491   3.814 -0.0142  0.7743  1.5979
 1176SOL     OW 4151   2.273   0.774   3.145  0.3597 -0.1706  0.0108
 1176SOL    HW1 4152   2.273   0.837   3.068  0.7348 -0.0807  0.0843
 1176SOL    HW2 4153   2.179   0.763   3.179  0.4545  1.5596  0.9871
 1177SOL     OW 4154   1.857   2.383   3.270  0.0502  0.0257 -0.0358
 1177SOL    HW1 4155   1.763   2.409   3.248 -0.7875 -0.1301  2.9322
 1177SOL    HW2 4156   1.920   2.442   3.219 -1.6049  0.1112 -2.1313
 1178SOL     OW 4157   0.563   0.899   2.273  0.5334 -0.1083  0.3896
 1178SOL    HW1 4158   0.605   0.808   2.274  0.2604 -0.2336  1.3500
 1178SOL    HW2 4159   0.502   0.906   2.194  2.8572  0.3353 -1.4864
 1179SOL     OW 4160   3.508   3.538   3.367 -0.1648  0.0554  0.5388
 1179SOL    HW1 4161   3.529   3.615   3.426  0.8237 -0.6146  1.0942
 1179SOL    HW2 4162   3.531   3.452   3.414  0.3948 -0.4994 -0.6938
 1180SOL     OW 4163   4.257   3.994   0.045 -0.3081 -0.4683 -0.2244
 1180SOL    HW1 4164   4.287   3.912  -0.004  2.2230 -0.5541  1.3287
 1180SOL    HW2 4165   4.287   4.075  -0.006  0.6685 -0.5446  0.2195
 1181SOL     OW 4166   0.472   2.776   3.585  0.0170  0.3991  0.2542
 1181SOL    HW1 4167   0.549   2.712   3.576  0.1088  0.5725 -0.2035
 1181SOL    HW2 4168   0.440   2.802   3.494 -0.1841  0.8106  0.4437
 1182SOL     OW 4169   3.825   3.748   1.700 -0.7290 -0.1858  0.0709
 1182SOL    HW1 4170   3.751   3.748   1.633 -0.6663 -1.9227 -0.0474
 1182SOL    HW2 4171   3.908   3.785   1.659 -0.2980 -2.5007 -1.3584
 1183SOL     OW 4172   2.922   3.235   2.216 -0.0491  0.3973  0.5741
 1183SOL    HW1 4173   2.963   3.323   2.190  0.0809  0.7491  1.8735
 1183SOL    HW2 4174   2.844   3.252   2.276  0.3455 -0.3866  1.3208
 1184SOL     OW 4175   3.765   4.209   4.372 -0.0672 -0.0800 -0.2300
 1184SOL    HW1 4176   3.826   4.159   4.309  0.4211  1.0447 -0.6844
 1184SOL    HW2 4177   3.751   4.302   4.337 -0.7677  0.1781  0.7112
 1185SOL     OW 4178   1.745   1.626   1.835  0.0268 -0.3051  0.0620
 1185SOL    HW1 4179   1.789   1.603   1.922 -3.5994 -3.2354  1.3941
 1185SOL    HW2 4180   1.786   1.573   1.761  1.8814  0.8096  0.2106
 1186SOL     OW 4181   0.144   1.855   1.850 -0.7253 -0.2161 -0.3198
 1186SOL    HW1 4182   0.228   1.827   1.803 -0.6726  0.1084 -0.4226
 1186SOL    HW2 4183   0.159   1.856   1.949 -0.4926  0.2096 -0.3579
 1187SOL     OW 4184   2.093   3.494   1.246  0.2201  0.0754 -0.6722
 1187SOL    HW1 4185   2.023   3.445   1.193  0.8008 -0.8419 -0.6274
 1187SOL    HW2 4186   2.131   3.568   1.190 -2.6122  2.3823  0.2195
 1188SOL     OW 4187   1.143   1.419   3.894  0.0722  0.3307  0.1628
 1188SOL    HW1 4188   1.236   1.391   3.869  0.3526  0.9487  0.4940
 1188SOL    HW2 4189   1.130   1.515   3.869 -0.5346  0.1961 -0.0372
 1189SOL     OW 4190   3.055   0.608   1.534  0.7552  0.2889  0.4831
 1189SOL    HW1 4191   3.019   0.585   1.444 -1.6097  0.7017  1.2429
 1189SOL    HW2 4192   3.144   0.653   1.524  0.0884  1.2602 -1.7294
 1190SOL     OW 4193   1.220   2.036   1.674 -0.1426  0.4021  0.1407
 1190SOL    HW1 4194   1.244   1.943   1.646  1.2597  0.4476  1.1292
 1190SOL    HW2 4195   1.126   2.056   1.644 -0.5771 -1.4188  0.1649
 1191SOL     OW 4196   4.392   4.426   4.646  0.2155  0.0286 -0.6678
 1191SOL    HW1 4197   4.354   4.342   4.683  1.0711  0.0347  0.2648
 1191SOL    HW2 4198   4.492   4.418   4.640  0.2061  0.5605 -1.6366
 1192SOL     OW 4199   2.077   3.864   2.357 -0.6026 -0.0783  0.0725
 1192SOL    HW1 4200   2.057   3.864   2.259  1.0686 -0.1635 -0.2952
 1192SOL    HW2 4201   2.149   3.930   2.376 -1.5120  0.5746  1.4043
 1193SOL     OW 4202   2.459   4.865   2.400  0.1216 -0.4223  0.1222
 1193SOL    HW1 4203   2.395   4.912   2.339  1.0854 -1.3387 -1.7056
 1193SOL    HW2 4204   2.544   4.846   2.350  0.7604 -1.7014  1.6085
 1194SOL     OW 4205   2.858   0.625   4.205  0.6439 -0.2504  0.3225
 1194SOL    HW1 4206   2.869   0.561   4.129 -1.1653 -0.7587  0.4369
 1194SOL    HW2 4207   2.846   0.574   4.290  0.0238  0.2508  0.5451
 1195SOL     OW 4208   0.813   2.342   0.264  0.3063  0.0031 -0.1340
 1195SOL    HW1 4209   0.808   2.437   0.234 -0.8220  0.1369  0.4145
 1195SOL    HW2 4210   0.846   2.285   0.189 -0.1264  0.6700 -0.8504
 1196SOL     OW 4211   1.663   0.311   0.945  0.4694  0.0145  0.3076
 1196SOL    HW1 4212   1.656   0.364   1.030  1.7919  2.0554 -0.7708
 1196SOL    HW2 4213   1.590   0.338   0.883  0.0607 -0.7997  0.4241
 1197SOL     OW 4214   1.113   1.519   0.605 -0.0899 -0.3271 -0.0975
 1197SOL    HW1 4215   1.091   1.610   0.570  0.4453 -0.0955  0.1505
 1197SOL    HW2 4216   1.205   1.494   0.576 -0.2492 -0.8054 -0.1923
 1198SOL     OW 4217   1.377   0.984   2.669  0.2001  0.0895 -0.0044
 1198SOL    HW1 4218   1.385   1.036   2.585  0.5680  0.2228  0.1078
 1198SOL    HW2 4219   1.381   0.886   2.649 -0.3596  0.1055 -0.2017
 1199SOL     OW 4220   0.736   2.369   4.025  0.0087 -0.0908  0.3239
 1199SOL    HW1 4221   0.661   2.303   4.026  0.6985 -0.9340  1.6900
 1199SOL    HW2 4222   0.769   2.383   4.119 -0.1850  2.3314  0.0925
 1200SOL     OW 4223   3.101   2.771   0.609 -0.1379  0.5318  0.5852
 1200SOL    HW1 4224   3.060   2.750   0.698 -1.8542  2.2352  0.2595
 1200SOL    HW2 4225   3.152   2.692   0.577 -0.2233 -0.4427  2.6619
 1201SOL     OW 4226   0.209   4.711   2.313  0.1183  0.2508 -0.4462
 1201SOL    HW1 4227   0.292   4.712   2.368 -0.5535  2.3111  0.6024
 1201SOL    HW2 4228   0.166   4.621   2.319  1.5146 -0.4022  0.1163
 1202SOL     OW 4229   1.492   2.411   4.750  0.0249 -0.3626 -0.4785
 1202SOL    HW1 4230   1.559   2.475   4.713  1.4072 -1.9363 -0.8031
 1202SOL    HW2 4231   1.400   2.441   4.725  0.6784  1.1401 -1.1502
 1203SOL     OW 4232   1.882   2.231   2.220  0.2882  0.1355 -0.1872
 1203SOL    HW1 4233   1.857   2.207   2.126 -0.5301  2.2910 -0.5904
 1203SOL    HW2 4234   1.800   2.253   2.272  0.9087  2.2594 -0.0044
 1204SOL     OW 4235   2.271   1.321   0.061  0.7727  0.1157 -0.2193
 1204SOL    HW1 4236   2.198   1.375   0.018  0.2455  0.8093  1.4520
 1204SOL    HW2 4237   2.291   1.359   0.152  1.8818 -1.2413  0.1359
 1205SOL     OW 4238   1.242   2.031   1.273  0.0681 -0.1183 -0.1774
 1205SOL    HW1 4239   1.146   2.058   1.278 -0.2382 -1.0065 -1.0060
 1205SOL    HW2 4240   1.299   2.106   1.305 -0.8817  0.5622 -0.0359
 1206SOL     OW 4241   0.658   2.703   3.267  0.9417 -0.1104  0.3689
 1206SOL    HW1 4242   0.667   2.627   3.203  0.9260  0.3524 -0.1871
 1206SOL    HW2 4243   0.717   2.778   3.239 -0.9716  1.1121 -0.6121
 1207SOL     OW 4244   1.753   4.514   4.064 -0.0025  0.0371 -0.0688
 1207SOL    HW1 4245   1.701   4.475   3.988 -0.7732 -1.5915  1.2135
 1207SOL    HW2 4246   1.745   4.454   4.144 -0.5139  2.4225  1.8043
 1208SOL     OW 4247   3.160   3.956   4.085  0.6907  0.4870 -0.2638
 1208SOL    HW1 4248   3.063   3.960   4.060 -0.2367  0.9479  2.9284
 1208SOL    HW2 4249   3.197   3.866   4.060  0.0050  0.8631 -3.0336
 1209SOL     OW 4250   2.701   1.105   2.630 -0.1255 -0.0083  0.0421
 1209SOL    HW1 4251   2.675   1.091   2.726 -0.7045  0.7150 -0.0064
 1209SOL    HW2 4252   2.799   1.126   2.625 -0.6563  3.1840  0.8309
 1210SOL     OW 4253   3.450   3.965   2.617  0.0511  0.2889 -0.2672
 1210SOL    HW1 4254   3.429   4.024   2.694  0.4658 -0.0994  0.1456
 1210SOL    HW2 4255   3.466   3.872   2.649  0.5935  0.2022 -0.7768
 1211SOL     OW 4256   1.385   3.109   2.719  0.1473  0.4678  0.3702
 1211SOL    HW1 4257   1.441   3.178   2.673 -1.3782  0.4670 -1.6350
 1211SOL    HW2 4258   1.408   3.018   2.683  0.1283  0.2495  0.8948
 1212SOL     OW 4259   3.366   1.385   3.112 -0.3903 -0.2423 -0.2776
 1212SOL    HW1 4260   3.297   1.326   3.155 -3.1807  1.7475 -1.6530
 1212SOL    HW2 4261   3.348   1.389   3.014  0.7382  1.5548 -0.4426
 1213SOL     OW 4262   0.468   2.944   2.700 -0.0808 -0.1055 -0.3906
 1213SOL    HW1 4263   0.475   2.999   2.784 -0.7525  0.5551 -0.7591
 1213SOL    HW2 4264   0.534   2.977   2.633 -0.1939 -0.0242 -0.4615
 1214SOL     OW 4265   1.279   2.223   4.448  0.0184  0.1721 -0.0081
 1214SOL    HW1 4266   1.266   2.160   4.525 -2.4870 -1.1187 -1.3458
 1214SOL    HW2 4267   1.323   2.175   4.372 -0.2998  0.5255 -0.4246
 1215SOL     OW 4268   1.635   3.060   2.952  0.3506 -0.3774  0.1082
 1215SOL    HW1 4269   1.704   2.995   2.921 -0.9858 -1.0440 -1.5968
 1215SOL    HW2 4270   1.556   3.010   2.988 -0.1753  0.3287 -0.0413
 1216SOL     OW 4271   3.669   0.761   2.182 -0.2300 -0.5319 -0.3253
 1216SOL    HW1 4272   3.757   0.793   2.147  0.3641 -0.8456  0.8168
 1216SOL    HW2 4273   3.655   0.666   2.153 -0.2635 -0.4344 -0.6320
 1217SOL     OW 4274   2.729   3.069   1.603  0.2253  0.3837  0.7631
 1217SOL    HW1 4275   2.821   3.058   1.641  0.4813  0.1336  0.0826
 1217SOL    HW2 4276   2.720   3.011   1.522 -0.5158  0.4513  0.7978
 1218SOL     OW 4277   4.697   2.612   0.041  0.3051 -0.2984 -0.2277
 1218SOL    HW1 4278   4.630   2.586  -0.029  0.6498 -1.2368 -0.2317
 1218SOL    HW2 4279   4.783   2.564   0.024  0.2473 -0.9334  1.1009
 1219SOL     OW 4280   0.795   1.160   2.679  0.3871 -0.2873 -0.5924
 1219SOL    HW1 4281   0.755   1.128   2.593 -1.2383  1.4217 -0.5479
 1219SOL    HW2 4282   0.797   1.085   2.745 -1.4730 -0.8268 -1.0904
 1220SOL     OW 4283   2.235   4.265   2.427  0.3497 -0.4367 -0.3899
 1220SOL    HW1 4284   2.245   4.295   2.521 -0.5461  0.3098 -0.5136
 1220SOL    HW2 4285   2.252   4.167   2.421  0.0875 -0.5507  0.6080
 1221SOL     OW 4286   4.523   1.824   2.124 -0.2994 -0.5398  1.1533
 1221SOL    HW1 4287   4.527   1.858   2.218 -0.1119  0.6911  0.7173
 1221SOL    HW2 4288   4.467   1.741   2.121 -0.6570 -0.3562  2.2804
 1222SOL     OW 4289   1.611   3.343   1.544 -0.1110  0.3866  0.3375
 1222SOL    HW1 4290   1.636   3.289   1.624 -0.1701 -0.4310 -0.1888
 1222SOL    HW2 4291   1.664   3.313   1.465 -0.1126  1.1297  0.0493
 1223SOL     OW 4292   1.555   1.309   1.303 -0.0201  0.0842 -0.6107
 1223SOL    HW1 4293   1.520   1.357   1.223 -0.8973 -1.3112 -1.0963
 1223SOL    HW2 4294   1.605   1.374   1.361  0.5720  1.1429 -2.2213
 1224SOL     OW 4295   1.520   1.542   2.376  0.5589  0.8391  0.2127
 1224SOL    HW1 4296   1.439   1.483   2.378 -0.4821  2.2416  1.2461
 1224SOL    HW2 4297   1.516   1.602   2.296 -0.3006  2.0439  1.1285
 1225SOL     OW 4298   1.228   4.710   3.228  0.0027 -0.3534 -0.2913
 1225SOL    HW1 4299   1.253   4.659   3.311  0.7416 -0.1701 -0.3984
 1225SOL    HW2 4300   1.306   4.714   3.166  0.1698  1.4507 -0.0115
 1226SOL     OW 4301   0.244   2.824   1.130 -0.2852 -0.2455 -0.2412
 1226SOL    HW1 4302   0.162   2.863   1.172  0.0717  0.6406 -0.3404
 1226SOL    HW2 4303   0.219   2.743   1.077 -0.9963 -0.3538  0.2456
 1227SOL     OW 4304   2.079   1.255   4.745  0.1442  0.1442  0.0323
 1227SOL    HW1 4305   2.037   1.310   4.672  1.7213  0.4432 -0.6808
 1227SOL    HW2 4306   2.052   1.159   4.734 -0.8298  0.4092 -0.0287
 1228SOL     OW 4307   4.338   3.178   4.266 -0.4976  0.5618 -0.3393
 1228SOL    HW1 4308   4.249   3.151   4.227 -0.3118 -1.0374  0.2528
 1228SOL    HW2 4309   4.323   3.221   4.355 -0.6678 -0.5339  0.1854
 1229SOL     OW 4310   0.821   1.165   1.408 -0.2501 -0.4114 -0.0648
 1229SOL    HW1 4311   0.883   1.161   1.330 -1.4380  0.3841 -1.1124
 1229SOL    HW2 4312   0.744   1.104   1.393  0.6481 -2.0520  1.6193
 1230SOL     OW 4313   4.432   1.761   4.090  0.4172 -0.2063 -0.3188
 1230SOL    HW1 4314   4.497   1.836   4.103  0.2544 -0.0486 -0.4127
 1230SOL    HW2 4315   4.397   1.730   4.178  1.7496 -1.2982 -0.1353
 1231SOL     OW 4316   3.254   3.300   1.895  0.1930  0.0521  0.8330
 1231SOL    HW1 4317   3.260   3.206   1.929  1.4140 -0.2596 -0.1710
 1231SOL    HW2 4318   3.253   3.363   1.973  0.1830 -0.7483  1.5009
 1232SOL     OW 4319   2.431   0.334   1.394 -0.5193  0.1349  0.0292
 1232SOL    HW1 4320   2.337   0.317   1.365 -0.8394 -0.9476  1.5340
 1232SOL    HW2 4321   2.438   0.320   1.493  1.2292  0.1744 -0.0532
 1233SOL     OW 4322   0.739   1.720   0.536  0.4109 -0.6551 -0.4130
 1233SOL    HW1 4323   0.669   1.788   0.515  0.2979 -0.6908 -0.1547
 1233SOL    HW2 4324   0.729   1.690   0.631  0.4883 -0.9975 -0.5109
 1234SOL     OW 4325   0.932   1.948   2.491  0.7157  0.6006  0.1158
 1234SOL    HW1 4326   0.846   1.898   2.495  0.8605  0.3386 -0.0361
 1234SOL    HW2 4327   0.918   2.036   2.446  1.2347 -0.9510 -3.3588
 1235SOL     OW 4328   0.057   3.303   4.538  0.4701 -0.2968 -0.0836
 1235SOL    HW1 4329   0.038   3.370   4.467 -0.8054 -2.0638 -1.5041
 1235SOL    HW2 4330   0.056   3.211   4.499 -0.3704 -1.3578  2.2211
 1236SOL     OW 4331   2.616   4.129   0.357  0.1394 -0.5624  0.1585
 1236SOL    HW1 4332   2.616   4.122   0.257  0.8229 -1.2104  0.1912
 1236SOL    HW2 4333   2.708   4.153   0.388 -0.4233  1.2193  0.5509
 1237SOL     OW 4334   1.472   1.863   1.331 -0.3398  0.5640  0.2295
 1237SOL    HW1 4335   1.384   1.910   1.335 -0.2450  0.6941  0.9777
 1237SOL    HW2 4336   1.487   1.813   1.416  0.4764  0.8517  0.2667
 1238SOL     OW 4337   1.313   1.724   4.413  0.1202  0.3005  0.5093
 1238SOL    HW1 4338   1.307   1.728   4.313  0.2104 -0.0275  0.4882
 1238SOL    HW2 4339   1.352   1.636   4.440 -0.7380  0.0169  0.8657
 1239SOL     OW 4340   1.162   1.120   2.438  0.0401 -0.8970  0.1034
 1239SOL    HW1 4341   1.105   1.058   2.386  0.1691 -3.1419  2.4435
 1239SOL    HW2 4342   1.126   1.129   2.531  1.3065  0.7791  0.4845
 1240SOL     OW 4343   2.913   4.086   2.224  0.0598 -0.2903 -0.3539
 1240SOL    HW1 4344   2.818   4.099   2.252  0.2198 -0.5355  0.3107
 1240SOL    HW2 4345   2.964   4.038   2.296  0.4885 -0.9072 -1.0497
 1241SOL     OW 4346   0.605   0.474   4.616  0.1764  0.4340 -0.2137
 1241SOL    HW1 4347   0.652   0.421   4.545 -1.6131 -0.9069 -0.4518
 1241SOL    HW2 4348   0.514   0.437   4.631 -0.1628  1.8302  1.5330
 1242SOL     OW 4349   2.179   0.547   4.158  0.0191 -0.5784  0.3415
 1242SOL    HW1 4350   2.270   0.587   4.149  0.1867 -1.1658 -0.8914
 1242SOL    HW2 4351   2.109   0.616   4.139  0.2966 -0.7090 -1.3370
 1243SOL     OW 4352   4.206   1.152   3.905  0.4042 -0.2000 -0.2377
 1243SOL    HW1 4353   4.120   1.107   3.930 -0.4179  1.1555 -0.5546
 1243SOL    HW2 4354   4.230   1.219   3.975 -0.5815  1.8091 -1.7235
 1244SOL     OW 4355   3.438   2.150   2.705 -0.4735 -0.1679  0.1918
 1244SOL    HW1 4356   3.472   2.057   2.717  0.6885 -0.0109 -1.5423
 1244SOL    HW2 4357   3.515   2.213   2.699 -1.2068  0.7063 -0.1769
 1245SOL     OW 4358   0.208   0.777   1.441 -0.7014 -0.0739 -0.0607
 1245SOL    HW1 4359   0.173   0.709   1.376  1.2523 -0.9932 -0.2163
 1245SOL    HW2 4360   0.294   0.744   1.481  0.1537  2.1750  0.0910
 1246SOL     OW 4361   1.170   4.267   0.539  0.2207 -0.2460  0.0912
 1246SOL    HW1 4362   1.106   4.330   0.495 -0.3312 -0.3054  0.7889
 1246SOL    HW2 4363   1.119   4.192   0.581  0.8340 -0.8513 -0.2336
 1247SOL     OW 4364   4.516   1.201   0.677 -0.0963  0.0572 -0.2842
 1247SOL    HW1 4365   4.435   1.208   0.619  0.3374  0.7465 -0.8322
 1247SOL    HW2 4366   4.538   1.292   0.714  2.0275  0.5310 -2.4212
 1248SOL     OW 4367   3.614   1.919   2.764  0.5607  0.3127 -0.3492
 1248SOL    HW1 4368   3.712   1.934   2.746  0.6286 -0.1427 -0.3705
 1248SOL    HW2 4369   3.602   1.890   2.859  0.4662  0.1670 -0.4057
 1249SOL     OW 4370   1.197   4.691   0.223 -0.4618 -0.1865  0.5040
 1249SOL    HW1 4371   1.292   4.684   0.253 -1.0142  0.1794  2.4461
 1249SOL    HW2 4372   1.194   4.686   0.123  1.8123  2.1743  0.2028
 1250SOL     OW 4373   4.891   0.709   3.992  0.2907  0.1422 -0.4739
 1250SOL    HW1 4374   4.957   0.704   4.068 -0.2607  2.9946  0.3346
 1250SOL    HW2 4375   4.910   0.791   3.937 -1.7055  0.2666 -1.0514
 1251SOL     OW 4376   1.672   0.451   2.128  0.2555  0.2281  0.1799
 1251SOL    HW1 4377   1.706   0.462   2.221 -2.2639 -0.4037  1.2586
 1251SOL    HW2 4378   1.727   0.382   2.080  2.8871  2.0284  0.4283
 1252SOL     OW 4379   2.197   0.439   1.279  0.0707  0.4238 -0.5911
 1252SOL    HW1 4380   2.272   0.506   1.277  1.4568 -1.0908 -1.1404
 1252SOL    HW2 4381   2.186   0.400   1.188 -1.7181  0.9307 -0.6224
 1253SOL     OW 4382   3.472   4.323   0.258  0.2386  0.1974  0.5056
 1253SOL    HW1 4383   3.400   4.262   0.226 -0.3148  2.4013 -3.0765
 1253SOL    HW2 4384   3.561   4.287   0.231 -0.0831  0.8626 -1.5898
 1254SOL     OW 4385   0.646   0.272   4.815 -0.5846  0.2226 -0.5116
 1254SOL    HW1 4386   0.625   0.339   4.744 -1.2518  0.5541 -0.0156
 1254SOL    HW2 4387   0.572   0.270   4.882  0.2777  0.3227  0.4749
 1255SOL     OW 4388   2.106   3.861   4.200  0.0869  0.0794  0.0605
 1255SOL    HW1 4389   2.044   3.920   4.147 -0.6344  0.7968  1.6143
 1255SOL    HW2 4390   2.167   3.918   4.255 -1.1000 -0.5405  2.1458
 1256SOL     OW 4391   3.516   0.458   2.703  0.6169  0.0103 -0.5877
 1256SOL    HW1 4392   3.551   0.428   2.615  1.5773 -1.9492  0.3805
 1256SOL    HW2 4393   3.571   0.534   2.737  1.4678 -0.4691 -0.8538
 1257SOL     OW 4394   0.647   2.769   4.563 -0.4320 -0.0286  0.6549
 1257SOL    HW1 4395   0.669   2.672   4.560  0.2721  0.1359  0.2867
 1257SOL    HW2 4396   0.566   2.783   4.619 -0.0776 -0.7467  1.3695
 1258SOL     OW 4397   2.596   1.404   2.573  0.1169  0.1588  0.1789
 1258SOL    HW1 4398   2.573   1.386   2.669  0.0600 -1.5600 -0.1315
 1258SOL    HW2 4399   2.694   1.419   2.565  0.1475  0.1364  0.4890
 1259SOL     OW 4400   4.027   4.055   0.442 -0.3359  0.3564  0.3224
 1259SOL    HW1 4401   4.118   4.085   0.470  0.5581 -2.6102  0.9552
 1259SOL    HW2 4402   4.034   3.989   0.367 -1.9183 -0.2509  0.6575
 1260SOL     OW 4403   1.222   0.734   0.851 -0.1675 -0.1196  0.0726
 1260SOL    HW1 4404   1.180   0.814   0.895  0.1165  0.2841 -0.3832
 1260SOL    HW2 4405   1.160   0.700   0.780  1.0270  1.6288 -1.9179
 1261SOL     OW 4406   3.311   1.387   2.820 -0.3392  0.5115 -0.2491
 1261SOL    HW1 4407   3.241   1.327   2.859 -1.1438  0.5948 -1.5044
 1261SOL    HW2 4408   3.399   1.340   2.819 -1.2296 -1.3026 -2.5635
 1262SOL     OW 4409   3.151   3.053   2.613  0.1204  0.6916 -0.0349
 1262SOL    HW1 4410   3.127   3.070   2.517  1.4329 -1.0570 -0.7109
 1262SOL    HW2 4411   3.235   3.102   2.636  0.7746 -0.2809 -0.3139
 1263SOL     OW 4412   1.682   2.200   0.105  0.3931 -0.3199 -0.0587
 1263SOL    HW1 4413   1.588   2.196   0.137  0.2829 -2.0629 -0.4858
 1263SOL    HW2 4414   1.730   2.274   0.152 -0.8367 -0.2152  1.1084
 1264SOL     OW 4415   2.314   1.798   3.963 -0.2126 -0.3680  0.3922
 1264SOL    HW1 4416   2.401   1.848   3.969 -0.2665 -0.4527  3.5105
 1264SOL    HW2 4417   2.331   1.700   3.966 -0.3851 -0.3795  1.6454
 1265SOL     OW 4418   0.754   4.666   2.062  0.3779 -0.3223  0.8429
 1265SOL    HW1 4419   0.805   4.618   2.134  3.4291 -0.9252 -1.5330
 1265SOL    HW2 4420   0.768   4.764   2.072  0.5876 -0.3839  1.1883
 1266SOL     OW 4421   0.342   1.995   0.456 -0.2122  0.0230  0.2709
 1266SOL    HW1 4422   0.277   2.063   0.424 -0.8450 -0.6851  0.0370
 1266SOL    HW2 4423   0.295   1.926   0.511  0.7595  0.9278  2.3629
 1267SOL     OW 4424   4.645   4.500   1.779 -0.6098 -0.3642  0.0781
 1267SOL    HW1 4425   4.581   4.512   1.703 -1.3100  0.8353  0.8209
 1267SOL    HW2 4426   4.738   4.514   1.747 -0.9771  1.2569 -0.3611
 1268SOL     OW 4427   4.356   0.209   0.466 -1.1999 -0.0173 -0.9774
 1268SOL    HW1 4428   4.346   0.302   0.431  1.2646  0.8796  0.4446
 1268SOL    HW2 4429   4.336   0.209   0.564  1.1995 -0.3671 -0.4214
 1269SOL     OW 4430   2.104   2.476   4.832 -0.0047 -0.4980  0.5803
 1269SOL    HW1 4431   2.199   2.507   4.836  0.6494 -1.6168 -2.7858
 1269SOL    HW2 4432   2.047   2.534   4.890  1.7969  4.2229 -1.8241
 1270SOL     OW 4433   4.032   2.339   0.143 -0.2393 -0.1078  0.3239
 1270SOL    HW1 4434   4.116   2.356   0.090 -0.4173 -0.5947 -0.1213
 1270SOL    HW2 4435   3.953   2.343   0.083 -0.7449  2.0979  1.0303
 1271SOL     OW 4436   1.303   3.502   0.790  0.4487  0.0380  0.7855
 1271SOL    HW1 4437   1.294   3.499   0.889 -1.4411  0.9978  0.6700
 1271SOL    HW2 4438   1.302   3.597   0.758 -1.2862 -0.3065 -0.3126
 1272SOL     OW 4439   2.106   0.700   4.755 -0.5572  0.9644  0.2874
 1272SOL    HW1 4440   2.194   0.740   4.781 -0.7371  1.0870  0.7272
 1272SOL    HW2 4441   2.048   0.693   4.836 -0.6450  0.1030  0.1513
 1273SOL     OW 4442   1.802   3.626   3.430 -0.5061  0.1331  0.3044
 1273SOL    HW1 4443   1.780   3.555   3.363  1.2097 -0.2242  0.0753
 1273SOL    HW2 4444   1.759   3.605   3.517 -1.0712 -0.4967 -0.1209
 1274SOL     OW 4445   1.170   2.179   2.814  0.5196 -0.2412  0.1099
 1274SOL    HW1 4446   1.252   2.206   2.762 -0.0121  0.2566 -0.4798
 1274SOL    HW2 4447   1.197   2.161   2.909  1.3384 -0.1976 -0.0997
 1275SOL     OW 4448   4.778   4.061   3.211 -0.3432 -0.4501  0.4508
 1275SOL    HW1 4449   4.867   4.105   3.199 -1.1479  2.5170  3.6823
 1275SOL    HW2 4450   4.745   4.027   3.122  4.2041 -2.4013 -0.7496
 1276SOL     OW 4451   3.038   4.531   4.628  0.2210 -0.2192  0.5125
 1276SOL    HW1 4452   3.018   4.556   4.534 -1.5534  0.7191  1.0782
 1276SOL    HW2 4453   3.135   4.547   4.647  0.9155 -1.6644 -1.4648
 1277SOL     OW 4454   4.606   4.341   4.888  0.3298  0.0221 -0.8436
 1277SOL    HW1 4455   4.641   4.401   4.815 -0.9856  2.5449  0.4437
 1277SOL    HW2 4456   4.523   4.382   4.927  1.3981 -0.7513  2.6002
 1278SOL     OW 4457   4.614   2.292   2.460  0.5337 -0.1102 -0.6195
 1278SOL    HW1 4458   4.531   2.316   2.512  0.5499  1.4515 -1.2512
 1278SOL    HW2 4459   4.593   2.293   2.362  1.3218  0.4555 -0.7928
 1279SOL     OW 4460   0.496   4.195   4.177 -0.3507 -0.1825 -0.6993
 1279SOL    HW1 4461   0.440   4.210   4.259  0.0982 -1.7529 -0.0526
 1279SOL    HW2 4462   0.463   4.114   4.129  0.2514 -0.0756 -1.3047
 1280SOL     OW 4463   0.241   3.404   1.113  1.0574 -0.2927 -0.1035
 1280SOL    HW1 4464   0.256   3.314   1.073  0.7989 -1.5049  2.3882
 1280SOL    HW2 4465   0.244   3.398   1.212 -1.8813  1.9007  0.2485
 1281SOL     OW 4466   0.802   1.655   1.136 -0.0413  0.6644  0.1694
 1281SOL    HW1 4467   0.772   1.571   1.090  0.8323  0.4704 -0.0615
 1281SOL    HW2 4468   0.726   1.720   1.139 -1.1138 -0.5553  1.3804
 1282SOL     OW 4469   2.781   4.714   1.110  0.1628 -0.2333  0.3283
 1282SOL    HW1 4470   2.835   4.646   1.060  1.0366  1.6222 -1.4006
 1282SOL    HW2 4471   2.712   4.753   1.050 -1.0817 -0.3385  1.6252
 1283SOL     OW 4472   3.123   1.245   2.955  0.0641 -0.2001  0.0943
 1283SOL    HW1 4473   3.110   1.157   2.909  0.4679 -0.1142 -0.1812
 1283SOL    HW2 4474   3.093   1.237   3.050 -0.0914 -0.5790  0.0144
 1284SOL     OW 4475   2.868   2.079   0.532  0.0014 -0.3981  0.2643
 1284SOL    HW1 4476   2.777   2.041   0.544  0.4291 -1.4294  0.4022
 1284SOL    HW2 4477   2.862   2.176   0.510 -1.2283 -0.9058 -1.8784
 1285SOL     OW 4478   3.330   3.588   4.784  0.0088 -0.2101  0.3570
 1285SOL    HW1 4479   3.280   3.665   4.824  1.1705  0.3279  0.7895
 1285SOL    HW2 4480   3.423   3.616   4.762  1.1065 -2.0036  2.3787
 1286SOL     OW 4481   1.214   3.699   3.075 -0.6449  0.4317  0.1012
 1286SOL    HW1 4482   1.286   3.725   3.140 -2.4109  0.7144  2.0238
 1286SOL    HW2 4483   1.190   3.603   3.089 -0.0504  0.0649 -1.1837
 1287SOL     OW 4484   4.809   2.688   1.524 -0.0589 -0.8438 -0.2958
 1287SOL    HW1 4485   4.873   2.763   1.509 -0.2564  0.0111  2.5684
 1287SOL    HW2 4486   4.859   2.602   1.537  0.3331 -0.6480 -0.5155
 1288SOL     OW 4487   4.859   3.124   0.658 -0.3214  0.1708  0.0136
 1288SOL    HW1 4488   4.888   3.189   0.587 -1.6676  2.0073  1.0740
 1288SOL    HW2 4489   4.896   3.033   0.637  0.9948  1.0934 -1.9257
 1289SOL     OW 4490   4.560   4.752   1.537  0.2203  0.8164  0.2251
 1289SOL    HW1 4491   4.531   4.657   1.549 -2.9754  1.5583 -0.6584
 1289SOL    HW2 4492   4.604   4.762   1.447  1.3877  0.0552  0.6866
 1290SOL     OW 4493   2.173   0.453   0.030 -0.4526  0.3149  0.6657
 1290SOL    HW1 4494   2.252   0.481   0.085 -0.5373  0.2758  0.8063
 1290SOL    HW2 4495   2.201   0.445  -0.066  0.0033 -0.8603  0.8873
 1291SOL     OW 4496   1.318   2.028   3.787  0.5110 -0.0300  0.3939
 1291SOL    HW1 4497   1.309   2.113   3.839  4.9117 -0.7101  2.7641
 1291SOL    HW2 4498   1.362   2.047   3.700  2.0795  0.1699  1.1911
 1292SOL     OW 4499   4.667   3.153   1.815  0.3254 -0.2373 -0.1392
 1292SOL    HW1 4500   4.715   3.240   1.817  1.4083 -0.8315  2.0707
 1292SOL    HW2 4501   4.687   3.106   1.729  2.1257  0.3999 -0.0980
 1293SOL     OW 4502   3.921   0.779   4.234 -0.3075  0.1128  0.5051
 1293SOL    HW1 4503   3.823   0.761   4.219 -0.1765  0.9442 -1.9214
 1293SOL    HW2 4504   3.966   0.696   4.265 -1.7112 -0.3785  1.3313
 1294SOL     OW 4505   1.218   0.237   4.439 -0.0972  0.3075 -0.7432
 1294SOL    HW1 4506   1.253   0.169   4.375  1.4159  0.1823  0.1627
 1294SOL    HW2 4507   1.295   0.288   4.478 -0.8532 -0.3261  1.7256
 1295SOL     OW 4508   2.840   3.443   2.828 -0.4893 -0.2765  0.9572
 1295SOL    HW1 4509   2.809   3.386   2.904 -2.3276 -1.5919 -0.6870
 1295SOL    HW2 4510   2.912   3.394   2.778  0.4770  0.4423  1.6040
 1296SOL     OW 4511   4.462   3.551   4.908 -0.2641 -0.2601 -0.4298
 1296SOL    HW1 4512   4.508   3.613   4.844 -0.4848 -0.2413 -0.5710
 1296SOL    HW2 4513   4.410   3.605   4.974 -1.1601 -0.3157 -1.0821
 1297SOL     OW 4514   3.934   1.090   2.726  0.3731 -0.9577 -0.1529
 1297SOL    HW1 4515   3.945   1.167   2.663  1.6972 -0.1661  1.0033
 1297SOL    HW2 4516   3.842   1.052   2.716 -0.1766  0.5229 -1.0231
 1298SOL     OW 4517   1.128   3.986   4.238 -0.1983  0.3435 -0.3943
 1298SOL    HW1 4518   1.169   3.985   4.147 -1.1614  1.3568 -0.8572
 1298SOL    HW2 4519   1.178   4.050   4.296  0.3408 -0.2125 -0.2364
 1299SOL     OW 4520   1.109   1.694   3.994  0.2564 -0.3820  0.6801
 1299SOL    HW1 4521   1.191   1.699   4.051 -0.3475  4.0735  1.5090
 1299SOL    HW2 4522   1.031   1.664   4.049  0.8570 -2.7478  0.3540
 1300SOL     OW 4523   0.332   4.516   4.907  0.6412  0.4258 -0.3284
 1300SOL    HW1 4524   0.419   4.564   4.918  1.4784 -1.1006  0.0229
 1300SOL    HW2 4525   0.319   4.494   4.810  0.9749  0.1081 -0.3062
 1301SOL     OW 4526   0.159   0.507   1.331 -0.5647  0.5770 -0.0487
 1301SOL    HW1 4527   0.201   0.464   1.251 -0.8022  0.7151 -0.2477
 1301SOL    HW2 4528   0.075   0.554   1.304 -0.7427  0.4732  0.3124
 1302SOL     OW 4529   0.192   4.226   3.587 -0.0476 -0.0404 -0.1187
 1302SOL    HW1 4530   0.154   4.249   3.497  1.7850  1.1079 -0.6409
 1302SOL    HW2 4531   0.247   4.143   3.579 -0.0707 -0.0668 -0.0074
 1303SOL     OW 4532   4.574   4.104   4.782  0.0271  0.2769  0.2193
 1303SOL    HW1 4533   4.569   4.035   4.855 -1.2022 -0.7585 -0.7827
 1303SOL    HW2 4534   4.567   4.195   4.822 -2.8037 -0.3048  1.3230
 1304SOL     OW 4535   2.844   3.699   2.744  0.1163 -0.4881 -0.2636
 1304SOL    HW1 4536   2.817   3.610   2.781 -0.3728 -0.5794 -0.8233
 1304SOL    HW2 4537   2.789   3.719   2.662 -0.1446  0.5613  0.1502
 1305SOL     OW 4538   3.650   4.850   0.064 -0.1479  0.1068 -0.2192
 1305SOL    HW1 4539   3.702   4.802  -0.007  1.2997 -0.5412  1.2365
 1305SOL    HW2 4540   3.553   4.825   0.057  0.5283 -3.1258  0.4831
 1306SOL     OW 4541   1.610   3.702   0.446  0.9046  0.2138 -0.0248
 1306SOL    HW1 4542   1.533   3.663   0.496  0.9443  0.7261  0.4483
 1306SOL    HW2 4543   1.675   3.630   0.423  0.3761 -0.1931 -0.2660
 1307SOL     OW 4544   4.390   0.924   4.641  0.3042  0.0950  0.2151
 1307SOL    HW1 4545   4.340   0.866   4.705 -1.9279  1.5887 -0.0513
 1307SOL    HW2 4546   4.447   0.989   4.692 -0.3125  0.3096  0.6371
 1308SOL     OW 4547   2.961   3.673   1.671  0.0142  0.1252  0.2903
 1308SOL    HW1 4548   2.994   3.712   1.585 -0.8978  2.0806  0.7821
 1308SOL    HW2 4549   2.896   3.736   1.714 -2.0100 -2.2217  0.8789
 1309SOL     OW 4550   4.509   3.097   1.400 -0.2056 -0.7243  0.5571
 1309SOL    HW1 4551   4.533   3.085   1.303 -1.3099  1.0891  0.0053
 1309SOL    HW2 4552   4.590   3.082   1.456  0.9631  0.1153 -0.8151
 1310SOL     OW 4553   3.200   0.387   0.885  0.2953  0.0140  0.0093
 1310SOL    HW1 4554   3.185   0.312   0.821 -0.0956  0.1265 -0.0309
 1310SOL    HW2 4555   3.184   0.475   0.839  0.8000  0.1263  0.0415
 1311SOL     OW 4556   4.439   4.326   4.369  0.1608  0.0420  0.0946
 1311SOL    HW1 4557   4.375   4.385   4.418 -0.6343  0.9845 -1.9751
 1311SOL    HW2 4558   4.440   4.351   4.272  0.0702 -3.1163 -0.8148
 1312SOL     OW 4559   1.476   1.956   3.983 -0.4952  1.1372  0.1809
 1312SOL    HW1 4560   1.415   2.004   3.920 -0.0140  0.6779 -0.6511
 1312SOL    HW2 4561   1.571   1.966   3.953 -0.2867  0.6316  0.6413
 1313SOL     OW 4562   3.617   4.170   3.657  0.8117 -0.4737  0.1435
 1313SOL    HW1 4563   3.675   4.226   3.716  0.8609  0.2479 -0.5741
 1313SOL    HW2 4564   3.545   4.227   3.617 -0.9105 -1.4767  1.6042
 1314SOL     OW 4565   1.698   2.151   1.476 -0.5865 -0.8885  0.0518
 1314SOL    HW1 4566   1.672   2.139   1.380 -1.7216  0.7903  0.1080
 1314SOL    HW2 4567   1.630   2.106   1.534 -2.3343  1.6801  0.1363
 1315SOL     OW 4568   4.638   3.225   0.769  0.7369  0.0362 -0.0999
 1315SOL    HW1 4569   4.592   3.227   0.680  1.3927  2.5442 -0.4563
 1315SOL    HW2 4570   4.731   3.191   0.757  0.8859  0.5480 -0.4187
 1316SOL     OW 4571   0.702   2.241   3.242  0.0262  0.1285  0.2404
 1316SOL    HW1 4572   0.646   2.160   3.232  1.1694 -0.5364 -1.1065
 1316SOL    HW2 4573   0.693   2.277   3.335  0.0040 -1.9333  1.0784
 1317SOL     OW 4574   1.043   3.379   4.781  0.5404 -0.2139  0.0406
 1317SOL    HW1 4575   1.083   3.393   4.872 -0.7892  0.1495  0.5946
 1317SOL    HW2 4576   0.975   3.305   4.786 -0.2809  0.4988 -0.4162
 1318SOL     OW 4577   3.810   3.504   1.361  0.7230  0.7434 -0.4182
 1318SOL    HW1 4578   3.790   3.492   1.264  3.2162 -2.7913 -0.6766
 1318SOL    HW2 4579   3.905   3.534   1.372  0.4643  1.1458  0.9744
 1319SOL     OW 4580   0.975   3.369   2.308  0.3646 -0.2390  0.3628
 1319SOL    HW1 4581   1.045   3.336   2.372  0.0187 -0.7150  0.5027
 1319SOL    HW2 4582   0.955   3.298   2.241  2.2598  0.9845 -1.6440
 1320SOL     OW 4583   2.658   4.804   2.025  0.2170 -0.6755 -0.2154
 1320SOL    HW1 4584   2.618   4.751   1.951  1.7759 -0.2403 -1.4352
 1320SOL    HW2 4585   2.679   4.896   1.993  1.0759 -0.5288  0.7124
 1321SOL     OW 4586   4.759   2.339   4.004  0.0755  0.0226 -0.1636
 1321SOL    HW1 4587   4.820   2.317   3.928  0.7429  1.3629 -0.0564
 1321SOL    HW2 4588   4.671   2.372   3.967  0.6971  1.5032 -0.4192
 1322SOL     OW 4589   4.490   0.431   2.639 -0.1407  0.0178 -0.3282
 1322SOL    HW1 4590   4.481   0.335   2.667 -1.2843  0.1291 -0.2510
 1322SOL    HW2 4591   4.402   0.477   2.651  0.8114  1.5291  1.2159
 1323SOL     OW 4592   0.734   2.983   2.055  0.1517  0.4298 -0.4370
 1323SOL    HW1 4593   0.776   2.895   2.076  0.3387  0.7089  0.3748
 1323SOL    HW2 4594   0.655   2.968   1.995  0.6037 -0.2151 -0.8900
 1324SOL     OW 4595   4.616   2.232   0.310 -0.2659 -0.1915 -0.0342
 1324SOL    HW1 4596   4.666   2.166   0.254 -0.1354 -0.9341  0.9485
 1324SOL    HW2 4597   4.679   2.277   0.373 -0.3072  1.0657 -0.8369
 1325SOL     OW 4598   4.160   0.949   2.587 -0.1038  0.8376  0.3798
 1325SOL    HW1 4599   4.066   0.970   2.611 -0.5440  0.3365 -0.8065
 1325SOL    HW2 4600   4.196   0.880   2.649 -0.7049  0.6280  0.4992
 1326SOL     OW 4601   0.609   2.452   4.590 -0.1136 -0.4651 -0.8648
 1326SOL    HW1 4602   0.624   2.427   4.686  2.1662 -0.3532 -1.1381
 1326SOL    HW2 4603   0.519   2.419   4.561  0.1925 -2.8176  0.5734
 1327SOL     OW 4604   0.268   4.390   0.818  0.1335  0.2085 -0.1306
 1327SOL    HW1 4605   0.226   4.422   0.903 -1.7521  0.0452 -0.9570
 1327SOL    HW2 4606   0.364   4.369   0.834 -0.2366 -0.0248  2.0017
 1328SOL     OW 4607   4.067   0.188   2.179 -0.3127  0.0979 -0.3822
 1328SOL    HW1 4608   4.040   0.122   2.108 -0.3016  0.2638 -0.5422
 1328SOL    HW2 4609   4.097   0.273   2.135  1.3729 -0.3967 -0.2482
 1329SOL     OW 4610   0.077   1.255   1.221  0.1150 -0.0657  0.0596
 1329SOL    HW1 4611   0.104   1.243   1.317  1.2947  1.8996  0.0336
 1329SOL    HW2 4612   0.153   1.296   1.170 -0.5761 -0.8742 -1.6900
 1330SOL     OW 4613   3.698   2.589   1.594 -0.0329  0.3875  0.4247
 1330SOL    HW1 4614   3.682   2.603   1.692 -0.0978  0.7063  0.3691
 1330SOL    HW2 4615   3.718   2.676   1.551 -0.4227  0.3071  0.0751
 1331SOL     OW 4616   1.108   1.510   0.879  0.0691 -0.0682 -0.0876
 1331SOL    HW1 4617   1.093   1.600   0.920  0.4014  0.1325 -0.4030
 1331SOL    HW2 4618   1.088   1.514   0.781 -1.7613 -0.8063  0.2056
 1332SOL     OW 4619   0.131   0.331   2.048  0.1095 -0.4205 -0.2173
 1332SOL    HW1 4620   0.113   0.249   1.994 -0.2181  0.2609 -1.1774
 1332SOL    HW2 4621   0.160   0.405   1.987 -1.2767  0.6773  0.3906
 1333SOL     OW 4622   1.429   3.337   0.372  0.3782 -0.1867 -0.2720
 1333SOL    HW1 4623   1.446   3.305   0.465  0.8244  1.0368  0.0802
 1333SOL    HW2 4624   1.403   3.433   0.373  2.1459  0.3720 -1.5109
 1334SOL     OW 4625   3.879   1.786   1.371  0.1494 -0.3012 -0.5688
 1334SOL    HW1 4626   3.957   1.848   1.372 -0.3275  0.3421 -1.4124
 1334SOL    HW2 4627   3.805   1.825   1.426 -0.1168 -0.1580 -1.0214
 1335SOL     OW 4628   1.874   0.860   2.908 -0.1489  0.2451  0.2940
 1335SOL    HW1 4629   1.951   0.869   2.844  0.2988  0.1253  0.8040
 1335SOL    HW2 4630   1.882   0.773   2.957  0.0527  0.7486  1.1917
 1336SOL     OW 4631   2.271   0.080   4.094  0.6925  0.0270 -0.2563
 1336SOL    HW1 4632   2.182   0.097   4.136  1.2165  1.4376  0.3363
 1336SOL    HW2 4633   2.266   0.104   3.997  0.6533  0.9878 -0.0306
 1337SOL     OW 4634   2.949   3.057   0.265  0.0641  0.0209  0.2777
 1337SOL    HW1 4635   2.982   3.151   0.266  1.1404 -0.2907 -1.3891
 1337SOL    HW2 4636   2.970   3.014   0.353  0.7380  0.9525  0.5933
 1338SOL     OW 4637   4.460   0.740   0.587 -0.3479 -0.3759  0.1046
 1338SOL    HW1 4638   4.519   0.818   0.604 -0.3480 -0.2165 -0.6104
 1338SOL    HW2 4639   4.458   0.681   0.668 -1.4352  1.0656  1.1893
 1339SOL     OW 4640   2.958   3.095   1.981 -0.0248  0.1415 -0.3329
 1339SOL    HW1 4641   3.056   3.074   1.974 -0.1605 -1.1321  1.1323
 1339SOL    HW2 4642   2.939   3.135   2.070 -0.9531 -0.3148 -0.3185
 1340SOL     OW 4643   3.968   2.054   4.487  0.0713  0.1643 -0.5033
 1340SOL    HW1 4644   4.040   2.016   4.546  0.1850 -0.2725 -0.9151
 1340SOL    HW2 4645   4.006   2.072   4.396  0.1632  1.7792 -0.1770
 1341SOL     OW 4646   4.873   2.361   3.510  0.0137  0.3689 -0.2035
 1341SOL    HW1 4647   4.773   2.354   3.521 -0.1148 -0.8300 -1.8049
 1341SOL    HW2 4648   4.896   2.453   3.477 -0.4969  0.8107  0.6240
 1342SOL     OW 4649   3.885   1.661   2.180 -0.5848  0.0313 -0.1926
 1342SOL    HW1 4650   3.984   1.648   2.187 -0.0778  0.2765 -4.4321
 1342SOL    HW2 4651   3.841   1.574   2.160 -0.6258  0.4789 -2.2598
 1343SOL     OW 4652   1.316   0.908   4.675 -0.1932 -0.9380 -0.4979
 1343SOL    HW1 4653   1.323   0.935   4.771  0.7668 -2.3618 -0.1457
 1343SOL    HW2 4654   1.225   0.932   4.641 -0.1594  0.6323  0.4174
 1344SOL     OW 4655   3.554   2.015   3.872 -0.3429 -0.1091  0.0187
 1344SOL    HW1 4656   3.523   2.010   3.777  1.3219 -0.2686 -0.5510
 1344SOL    HW2 4657   3.496   1.957   3.928 -2.3085  1.1751 -0.6035
 1345SOL     OW 4658   0.661   1.127   3.362 -0.1021 -0.0637 -0.4608
 1345SOL    HW1 4659   0.578   1.127   3.419  0.3218  1.5040  0.2070
 1345SOL    HW2 4660   0.667   1.213   3.313  1.2683 -0.0569 -0.3066
 1346SOL     OW 4661   2.007   2.844   4.746 -0.5176  0.1666  0.1113
 1346SOL    HW1 4662   1.921   2.795   4.760 -1.2441  1.2499 -0.4057
 1346SOL    HW2 4663   2.001   2.934   4.788 -0.0489  0.6693 -0.8759
 1347SOL     OW 4664   2.018   3.534   2.058  0.5498  0.0545  0.0867
 1347SOL    HW1 4665   1.922   3.519   2.079  0.5032 -0.8648 -0.6965
 1347SOL    HW2 4666   2.036   3.632   2.052 -0.3865  0.2291  0.0061
 1348SOL     OW 4667   1.537   2.902   1.865  0.5323  0.5933 -0.2868
 1348SOL    HW1 4668   1.577   2.952   1.942 -0.9014  1.7563 -0.2560
 1348SOL    HW2 4669   1.549   2.955   1.781  0.8029  0.0169 -0.6139
 1349SOL     OW 4670   2.601   0.990   1.276 -0.2287 -0.4924  0.5664
 1349SOL    HW1 4671   2.677   0.975   1.213 -0.2842  0.5819  0.2324
 1349SOL    HW2 4672   2.517   1.004   1.224  0.1154  2.8433  0.6919
 1350SOL     OW 4673   2.796   2.734   0.711 -0.0075 -0.2480 -0.4771
 1350SOL    HW1 4674   2.748   2.647   0.726 -0.3736 -0.0518 -0.4841
 1350SOL    HW2 4675   2.728   2.807   0.701  0.2997  0.0347 -0.4871
 1351SOL     OW 4676   1.778   3.771   2.930 -0.0288  0.3269  0.3284
 1351SOL    HW1 4677   1.777   3.869   2.949 -0.2546  0.6546 -1.2271
 1351SOL    HW2 4678   1.704   3.749   2.866  1.3152 -0.4787 -1.0245
 1352SOL     OW 4679   2.507   3.394   1.945 -0.2737 -0.5199  0.0631
 1352SOL    HW1 4680   2.548   3.336   1.874 -0.5282 -1.7473  0.8856
 1352SOL    HW2 4681   2.481   3.337   2.023 -1.9790  0.4673  0.2677
 1353SOL     OW 4682   3.222   2.106   1.651  0.3754 -0.3095 -0.0063
 1353SOL    HW1 4683   3.267   2.068   1.570  2.3325  0.7869  0.4882
 1353SOL    HW2 4684   3.272   2.078   1.733 -0.3116  0.3282  0.6438
 1354SOL     OW 4685   2.336   2.864   0.492 -0.4860  0.0472  0.1849
 1354SOL    HW1 4686   2.394   2.894   0.416 -0.3268 -1.5345 -0.3583
 1354SOL    HW2 4687   2.242   2.896   0.477 -0.5920 -0.7642 -1.0296
 1355SOL     OW 4688   3.107   3.703   4.349 -0.5645  0.1510  0.0177
 1355SOL    HW1 4689   3.110   3.635   4.422  0.0404 -0.1295 -0.2578
 1355SOL    HW2 4690   3.180   3.770   4.362  0.4490 -0.6976 -1.0732
 1356SOL     OW 4691   0.819   3.603   0.358 -0.7219 -0.3216 -0.4383
 1356SOL    HW1 4692   0.732   3.606   0.408  0.1190 -0.6407  1.1122
 1356SOL    HW2 4693   0.823   3.679   0.293 -1.5202  0.6069  0.5589
 1357SOL     OW 4694   0.627   0.085   0.366 -0.2211 -0.2883 -0.1646
 1357SOL    HW1 4695   0.706   0.066   0.309 -0.7782 -0.2930 -0.9624
 1357SOL    HW2 4696   0.570   0.154   0.321  0.9494  2.1922  1.9082
 1358SOL     OW 4697   2.205   4.280   0.602  0.0134  0.1786  0.0749
 1358SOL    HW1 4698   2.297   4.310   0.627 -1.0514  2.3990  1.7422
 1358SOL    HW2 4699   2.173   4.212   0.668 -0.2463  0.9065  0.7189
 1359SOL     OW 4700   3.539   4.549   1.742 -0.2887 -0.0280 -0.2144
 1359SOL    HW1 4701   3.457   4.543   1.799 -0.1011 -1.2782 -0.0415
 1359SOL    HW2 4702   3.620   4.543   1.799  0.0163  2.8167 -0.1971
 1360SOL     OW 4703   2.927   4.754   2.397  0.2742  0.1665  0.0556
 1360SOL    HW1 4704   2.830   4.757   2.373  0.1926 -3.4329 -0.7355
 1360SOL    HW2 4705   2.937   4.752   2.497 -0.4862  0.2003  0.1348
 1361SOL     OW 4706   1.765   0.676   3.986  0.5223 -0.1652  0.4466
 1361SOL    HW1 4707   1.755   0.765   3.942 -0.6340 -1.0694 -1.2311
 1361SOL    HW2 4708   1.850   0.633   3.955 -0.7756 -1.2388 -1.8789
 1362SOL     OW 4709   0.601   2.962   2.304  0.0977  0.0109  0.0386
 1362SOL    HW1 4710   0.675   2.935   2.242  0.3613 -0.0490  0.3780
 1362SOL    HW2 4711   0.640   3.005   2.386 -0.3000  1.4416 -0.4929
 1363SOL     OW 4712   4.617   0.782   2.735  0.3360  0.3909 -0.2393
 1363SOL    HW1 4713   4.561   0.864   2.724  1.4139  1.0501 -0.9962
 1363SOL    HW2 4714   4.622   0.733   2.647 -0.4256 -0.5919  0.2414
 1364SOL     OW 4715   2.283   4.144   1.241 -0.3176  0.0542  0.0831
 1364SOL    HW1 4716   2.194   4.104   1.221 -0.1348  0.1558 -0.9823
 1364SOL    HW2 4717   2.316   4.110   1.329 -0.7295 -1.1621 -0.2116
 1365SOL     OW 4718   3.328   1.032   3.171  0.6204 -0.1244 -0.2516
 1365SOL    HW1 4719   3.405   1.074   3.122  1.1629  0.1004  0.7613
 1365SOL    HW2 4720   3.363   0.971   3.243 -0.1274  0.4043  0.5904
 1366SOL     OW 4721   0.628   3.250   0.292  0.0993 -0.3701 -0.6412
 1366SOL    HW1 4722   0.723   3.266   0.264  0.5962 -2.0279 -0.0664
 1366SOL    HW2 4723   0.621   3.260   0.391 -0.8393  1.8797 -0.8861
 1367SOL     OW 4724   3.700   1.326   1.661 -0.0983  0.0209  0.7889
 1367SOL    HW1 4725   3.660   1.257   1.721 -0.3386  0.0268  0.6358
 1367SOL    HW2 4726   3.653   1.325   1.573 -0.6382  0.9270  1.0546
 1368SOL     OW 4727   4.005   3.112   3.165  0.0181  0.9162 -0.7033
 1368SOL    HW1 4728   3.931   3.158   3.214  0.5263  1.9248 -0.8411
 1368SOL    HW2 4729   3.978   3.098   3.070 -0.2610  0.6605 -0.5841
 1369SOL     OW 4730   4.697   1.849   2.950 -0.1175  0.1895  0.1237
 1369SOL    HW1 4731   4.622   1.803   2.901 -0.2681 -1.3043  1.6584
 1369SOL    HW2 4732   4.766   1.782   2.976  1.6711  1.5015 -0.9928
 1370SOL     OW 4733   4.781   3.971   1.240  0.3948  0.5867  0.4672
 1370SOL    HW1 4734   4.726   3.982   1.158 -0.1077 -0.2994  0.6633
 1370SOL    HW2 4735   4.768   3.878   1.276  2.5388  0.1191  0.1426
 1371SOL     OW 4736   4.205   2.752   2.869  0.3184 -0.3087  0.0198
 1371SOL    HW1 4737   4.139   2.703   2.928  0.3577  0.9155  1.1230
 1371SOL    HW2 4738   4.188   2.728   2.774  0.1745 -2.2745  0.4884
 1372SOL     OW 4739   4.497   4.489   1.554 -0.1865 -0.3831 -0.0029
 1372SOL    HW1 4740   4.410   4.439   1.560 -0.0539 -0.7007 -0.6222
 1372SOL    HW2 4741   4.542   4.466   1.468 -0.5479  1.4844 -0.7467
 1373SOL     OW 4742   2.602   4.131   3.227 -0.3872 -0.1261  0.7475
 1373SOL    HW1 4743   2.550   4.113   3.311 -1.7106 -0.0763 -0.0402
 1373SOL    HW2 4744   2.573   4.218   3.188 -1.4928 -1.2178 -0.9922
 1374SOL     OW 4745   2.146   0.329   4.382  0.4253 -1.0217 -0.1293
 1374SOL    HW1 4746   2.163   0.419   4.341 -0.2534 -0.6108  0.4631
 1374SOL    HW2 4747   2.054   0.327   4.421  0.4628 -1.9521 -0.0558
 1375SOL     OW 4748   4.241   2.520   4.557 -0.6703  0.5273 -0.5460
 1375SOL    HW1 4749   4.179   2.567   4.494 -1.8547  0.6529  0.6659
 1375SOL    HW2 4750   4.189   2.460   4.616  0.7057 -1.5486 -1.3342
 1376SOL     OW 4751   0.011   0.158   3.767  0.3953  0.0181 -0.3549
 1376SOL    HW1 4752   0.053   0.249   3.761 -0.9523  0.6741 -0.2683
 1376SOL    HW2 4753   0.077   0.089   3.736  2.9347  0.4884  3.3512
 1377SOL     OW 4754   4.648   1.660   2.705  0.7720 -0.5053  0.2681
 1377SOL    HW1 4755   4.671   1.639   2.610  0.0415 -0.3899  0.0590
 1377SOL    HW2 4756   4.566   1.718   2.708 -0.6330 -2.4254  1.0274
 1378SOL     OW 4757   2.322   2.597   0.174  0.4228  0.3536  0.1081
 1378SOL    HW1 4758   2.278   2.681   0.205 -0.2871  0.4704 -1.1355
 1378SOL    HW2 4759   2.342   2.605   0.076  1.7937 -0.3170  0.3045
 1379SOL     OW 4760   3.827   1.303   3.895  0.1288  0.8404  0.1075
 1379SOL    HW1 4761   3.863   1.264   3.809 -0.8478  0.0162  0.0552
 1379SOL    HW2 4762   3.861   1.396   3.906  1.6624  0.3655 -0.3146
 1380SOL     OW 4763   0.512   2.923   1.073  0.3474  0.2895 -0.0718
 1380SOL    HW1 4764   0.587   2.892   1.131  1.2286 -0.4051 -1.5179
 1380SOL    HW2 4765   0.429   2.873   1.097  1.0069 -0.9383 -0.2547
 1381SOL     OW 4766   1.833   2.241   2.672  0.4410 -0.3448 -0.2710
 1381SOL    HW1 4767   1.811   2.180   2.596 -0.4621 -1.3275  0.7451
 1381SOL    HW2 4768   1.931   2.237   2.690  0.2605 -2.5093  0.5580
 1382SOL     OW 4769   4.004   0.066   1.145 -0.2315  0.7223  0.4410
 1382SOL    HW1 4770   3.939   0.048   1.219 -1.4407  0.0005 -0.7498
 1382SOL    HW2 4771   4.070   0.135   1.175 -1.5593  1.5091  1.6962
 1383SOL     OW 4772   2.980   4.687   2.687 -0.0781 -0.3615 -0.0071
 1383SOL    HW1 4773   3.033   4.748   2.746  0.9447 -0.7481 -0.5104
 1383SOL    HW2 4774   2.896   4.661   2.733  0.1953  0.2092  0.8328
 1384SOL     OW 4775   2.048   0.409   3.504  0.0556  0.7750 -0.5180
 1384SOL    HW1 4776   2.134   0.358   3.493 -0.5851 -0.6633  0.8926
 1384SOL    HW2 4777   2.067   0.495   3.551  0.4546 -0.6755  2.1606
 1385SOL     OW 4778   2.877   0.004   3.370 -0.3433  0.0711  0.1163
 1385SOL    HW1 4779   2.913   0.081   3.317 -0.5033  0.2382  0.2493
 1385SOL    HW2 4780   2.879   0.027   3.468  0.7132 -0.5482  0.2554
 1386SOL     OW 4781   3.332   0.750   4.676  0.7846  0.5935  0.4495
 1386SOL    HW1 4782   3.263   0.822   4.674 -1.8791 -1.7542 -2.3099
 1386SOL    HW2 4783   3.377   0.745   4.586 -0.0001 -1.8589  0.1253
 1387SOL     OW 4784   2.620   4.398   0.996 -0.4154  0.3588 -0.2025
 1387SOL    HW1 4785   2.638   4.438   0.906  2.3640  1.6135  0.8051
 1387SOL    HW2 4786   2.653   4.304   0.998  2.9488  1.4283  0.4447
 1388SOL     OW 4787   4.234   4.023   1.407 -0.2131 -0.2523  0.0196
 1388SOL    HW1 4788   4.163   4.054   1.344 -0.0401 -0.1691 -0.1321
 1388SOL    HW2 4789   4.313   4.084   1.402 -0.6450  0.4311  1.1534
 1389SOL     OW 4790   0.281   2.671   4.888  0.7220 -0.3726 -0.0414
 1389SOL    HW1 4791   0.216   2.692   4.961  0.6743 -1.4148  0.2305
 1389SOL    HW2 4792   0.276   2.574   4.866  1.4376 -0.2567 -0.7553
 1390SOL     OW 4793   2.651   0.264   3.992 -0.6644 -0.2227  0.4428
 1390SOL    HW1 4794   2.587   0.212   4.050 -0.6200 -1.6238 -0.7015
 1390SOL    HW2 4795   2.727   0.297   4.048 -1.5759  0.0862  1.5249
 1391SOL     OW 4796   3.488   4.223   0.681  0.1351  0.0293  0.0277
 1391SOL    HW1 4797   3.395   4.258   0.693 -0.0787 -0.7039  0.5796
 1391SOL    HW2 4798   3.553   4.299   0.684 -0.3170  0.3947  1.1670
 1392SOL     OW 4799   3.860   2.801   0.598 -0.4155  0.1760 -0.2947
 1392SOL    HW1 4800   3.812   2.728   0.647 -0.3370  1.4924  1.8476
 1392SOL    HW2 4801   3.795   2.873   0.572  0.0379  1.0362  0.8677
 1393SOL     OW 4802   3.230   4.333   3.131 -0.1123  0.4402  0.1344
 1393SOL    HW1 4803   3.208   4.254   3.188  0.6212  0.1175 -0.0180
 1393SOL    HW2 4804   3.161   4.404   3.143  0.4407  0.7121  2.0658
 1394SOL     OW 4805   4.380   3.737   3.929  0.1139  0.3598 -0.9853
 1394SOL    HW1 4806   4.384   3.831   3.964  1.7275  0.4587 -1.3200
 1394SOL    HW2 4807   4.449   3.681   3.975 -1.3103 -0.8831 -0.2716
 1395SOL     OW 4808   4.872   1.673   3.025 -0.0998  0.0984 -0.1710
 1395SOL    HW1 4809   4.876   1.685   3.124  0.7457 -1.9234  0.0981
 1395SOL    HW2 4810   4.948   1.614   2.996 -0.1636  0.8860 -2.0724
 1396SOL     OW 4811   0.361   0.346   0.762  0.3136  0.5864 -0.8936
 1396SOL    HW1 4812   0.347   0.250   0.787  0.1894  0.1017 -2.7445
 1396SOL    HW2 4813   0.439   0.354   0.701  0.0254  1.6173 -1.1498
 1397SOL     OW 4814   0.971   1.108   1.182  0.5608 -0.3409 -0.3707
 1397SOL    HW1 4815   0.908   1.045   1.137  1.1692  0.3943 -2.3837
 1397SOL    HW2 4816   1.056   1.060   1.205  1.2778 -0.2179 -2.4874
 1398SOL     OW 4817   4.710   4.299   2.930 -0.2987  0.4181  0.1134
 1398SOL    HW1 4818   4.747   4.213   2.895  1.3726  1.3525 -0.5285
 1398SOL    HW2 4819   4.653   4.342   2.860  0.1972  0.6012 -0.1852
 1399SOL     OW 4820   0.681   1.727   3.927 -0.0891  0.0802  0.2148
 1399SOL    HW1 4821   0.706   1.753   3.833 -2.2999 -0.6996 -0.6580
 1399SOL    HW2 4822   0.683   1.627   3.936  0.4936  0.1612  1.1454
 1400SOL     OW 4823   0.036   3.461   2.055 -0.2836 -0.2484 -0.0055
 1400SOL    HW1 4824   0.007   3.556   2.066 -0.6613 -0.1515 -1.5171
 1400SOL    HW2 4825   0.135   3.458   2.039 -0.3748 -0.0250 -0.6594
 1401SOL     OW 4826   1.184   1.225   1.801  0.3324  0.1742  0.0834
 1401SOL    HW1 4827   1.142   1.315   1.812  1.0491  0.5137  0.0833
 1401SOL    HW2 4828   1.230   1.199   1.886  0.2989 -0.0996  0.0187
 1402SOL     OW 4829   1.422   1.944   2.262 -0.2797 -1.2168 -0.2994
 1402SOL    HW1 4830   1.451   1.864   2.210 -1.4849 -1.4264 -0.6552
 1402SOL    HW2 4831   1.339   1.923   2.313 -0.0007 -0.5194  0.4652
 1403SOL     OW 4832   4.636   3.522   3.815 -0.0354  0.1421 -0.2809
 1403SOL    HW1 4833   4.729   3.553   3.792 -0.1553  0.6429 -0.0984
 1403SOL    HW2 4834   4.570   3.569   3.756 -0.4027  1.8959  1.4241
 1404SOL     OW 4835   2.651   4.328   3.520  0.3761 -0.4428 -0.7794
 1404SOL    HW1 4836   2.612   4.407   3.473  1.8891  0.5616 -0.4224
 1404SOL    HW2 4837   2.580   4.259   3.534 -0.9023  0.6986 -1.4024
 1405SOL     OW 4838   0.057   4.776   4.702 -0.2327  0.0571  0.1485
 1405SOL    HW1 4839  -0.001   4.856   4.717  1.6363  1.6649 -0.7825
 1405SOL    HW2 4840   0.099   4.782   4.612  2.1848 -0.4620  1.1616
 1406SOL     OW 4841   2.945   1.135   0.478 -0.0604 -0.5546 -0.3144
 1406SOL    HW1 4842   3.038   1.167   0.458 -0.3037  0.6150  0.3633
 1406SOL    HW2 4843   2.885   1.158   0.401  0.3176 -1.9138 -1.0569
 1407SOL     OW 4844   0.281   1.514   3.273 -0.5940 -0.2319 -0.5910
 1407SOL    HW1 4845   0.356   1.577   3.295 -0.3549 -1.0124  0.9734
 1407SOL    HW2 4846   0.199   1.540   3.325 -0.4092 -1.3518  0.3000
 1408SOL     OW 4847   3.410   0.258   0.997 -0.3873  0.2577 -0.2096
 1408SOL    HW1 4848   3.330   0.310   0.966 -0.2981  1.3504  1.2533
 1408SOL    HW2 4849   3.380   0.183   1.056 -0.3212  1.4723  1.4367
 1409SOL     OW 4850   0.969   0.297   0.371 -0.1987 -0.0312 -0.1384
 1409SOL    HW1 4851   0.914   0.320   0.291 -0.4343  2.2210  0.6212
 1409SOL    HW2 4852   1.020   0.377   0.402 -0.2967 -0.7528  2.1127
 1410SOL     OW 4853   3.289   3.126   0.347  0.0837 -0.3655  0.2375
 1410SOL    HW1 4854   3.317   3.051   0.407  0.6716 -0.1749  0.2066
 1410SOL    HW2 4855   3.226   3.186   0.396  0.5999 -0.1823  0.6928
 1411SOL     OW 4856   3.330   4.258   2.115 -0.5274 -0.2993 -0.0868
 1411SOL    HW1 4857   3.366   4.342   2.156 -1.3887 -0.5776  1.3028
 1411SOL    HW2 4858   3.403   4.190   2.109 -0.2046  0.0029  0.3163
 1412SOL     OW 4859   0.770   4.144   1.961 -0.3465  0.4290  0.1854
 1412SOL    HW1 4860   0.746   4.216   2.026 -1.7219 -0.1816  0.3937
 1412SOL    HW2 4861   0.819   4.071   2.009 -0.9851  0.1754  0.4639
 1413SOL     OW 4862   4.509   2.003   3.532 -0.3246  1.1018 -0.2780
 1413SOL    HW1 4863   4.427   2.001   3.475  0.9925 -1.3273 -2.3192
 1413SOL    HW2 4864   4.523   1.913   3.574 -0.1020  2.2441  2.3146
 1414SOL     OW 4865   0.569   0.347   1.139 -0.0437  0.1718 -0.4337
 1414SOL    HW1 4866   0.504   0.308   1.204  0.7410  1.2700  1.0600
 1414SOL    HW2 4867   0.639   0.278   1.118  0.2303  0.0947  0.6463
 1415SOL     OW 4868   4.139   2.788   1.863 -0.5782  0.1546  0.1590
 1415SOL    HW1 4869   4.085   2.722   1.811 -2.0586 -0.7223  2.5949
 1415SOL    HW2 4870   4.138   2.877   1.818 -0.2592 -0.9566 -2.1479
 1416SOL     OW 4871   0.218   2.127   1.565  0.1719 -0.5866 -0.0405
 1416SOL    HW1 4872   0.235   2.210   1.513  3.2807 -2.6770 -2.7310
 1416SOL    HW2 4873   0.130   2.087   1.538  1.0830 -0.8834 -2.8385
 1417SOL     OW 4874   4.358   2.144   0.388  0.4791  0.1512  0.0154
 1417SOL    HW1 4875   4.377   2.081   0.463  0.7408  0.7697  0.4842
 1417SOL    HW2 4876   4.445   2.178   0.351  0.4297 -1.5819 -1.8431
 1418SOL     OW 4877   0.685   1.471   1.657 -0.0698  0.0801  0.0957
 1418SOL    HW1 4878   0.745   1.522   1.594  0.0536 -0.2729 -0.0721
 1418SOL    HW2 4879   0.633   1.536   1.712 -0.9799  0.4276 -1.1258
 1419SOL     OW 4880   1.181   2.099   0.059  0.3307  0.0848  0.6425
 1419SOL    HW1 4881   1.152   2.104   0.155  0.2862  1.3425  0.5683
 1419SOL    HW2 4882   1.276   2.129   0.051 -0.3143  2.0650  0.0173
 1420SOL     OW 4883   4.192   4.750   4.631  0.1610  0.6370 -0.2683
 1420SOL    HW1 4884   4.139   4.666   4.621 -0.3735  1.2437 -4.1609
 1420SOL    HW2 4885   4.288   4.727   4.647 -0.4490 -0.5489  2.1362
 1421SOL     OW 4886   2.461   1.173   2.913 -0.2260 -0.3999 -0.2360
 1421SOL    HW1 4887   2.489   1.263   2.882 -0.0587 -0.5880 -0.6430
 1421SOL    HW2 4888   2.539   1.111   2.910 -0.2260 -0.4505  0.4783
 1422SOL     OW 4889   1.421   4.329   4.533 -0.3182  0.2336  0.2238
 1422SOL    HW1 4890   1.417   4.234   4.566 -1.8999 -0.6489 -2.2371
 1422SOL    HW2 4891   1.355   4.385   4.583 -0.4420 -0.2985  0.6656
 1423SOL     OW 4892   0.228   0.483   1.863 -0.6471  0.3656 -0.4435
 1423SOL    HW1 4893   0.224   0.452   1.768 -0.0035 -0.0802 -0.3288
 1423SOL    HW2 4894   0.324   0.496   1.890 -0.6759 -1.6865  0.8429
 1424SOL     OW 4895   1.911   2.306   0.430 -0.0619 -0.4795 -0.2044
 1424SOL    HW1 4896   1.921   2.339   0.337 -2.3275  0.9598 -0.0014
 1424SOL    HW2 4897   1.869   2.215   0.429  0.4983 -0.7406 -0.5780
 1425SOL     OW 4898   3.013   3.367   1.054 -0.1917 -0.4897  0.3142
 1425SOL    HW1 4899   3.020   3.431   1.131 -2.0024 -1.0089  0.9635
 1425SOL    HW2 4900   2.925   3.380   1.008  0.6555 -0.5516 -1.3668
 1426SOL     OW 4901   2.093   1.558   1.689  0.6292 -0.3139  0.2089
 1426SOL    HW1 4902   1.999   1.523   1.683  0.6200 -0.2105 -0.2750
 1426SOL    HW2 4903   2.112   1.585   1.783 -0.1984  0.6761  0.1026
 1427SOL     OW 4904   3.956   2.706   4.298  0.4483 -0.0264 -0.4010
 1427SOL    HW1 4905   3.915   2.772   4.234 -0.8706  0.0079  0.4505
 1427SOL    HW2 4906   3.911   2.618   4.288  0.3150 -0.0518  0.4001
 1428SOL     OW 4907   0.444   1.345   1.471  0.0501 -0.2031 -0.4146
 1428SOL    HW1 4908   0.473   1.312   1.561 -1.4941 -0.7022 -0.0577
 1428SOL    HW2 4909   0.495   1.428   1.448  0.6307 -0.1836  0.8231
 1429SOL     OW 4910   2.617   1.472   0.579 -0.2567 -0.3365  0.2389
 1429SOL    HW1 4911   2.680   1.430   0.514  1.2797  0.0783  1.4011
 1429SOL    HW2 4912   2.523   1.447   0.555  0.0528  1.2023 -3.1297
 1430SOL     OW 4913   1.618   0.410   2.504 -0.4988 -0.9377  0.1277
 1430SOL    HW1 4914   1.540   0.352   2.528 -0.1781 -1.0870  0.8498
 1430SOL    HW2 4915   1.588   0.505   2.494 -1.0895 -1.2672 -1.4106
 1431SOL     OW 4916   3.696   3.376   4.220  0.2970 -0.7703  0.1451
 1431SOL    HW1 4917   3.706   3.389   4.121 -0.9601 -1.3698 -0.0784
 1431SOL    HW2 4918   3.787   3.366   4.261  0.7956 -2.1219 -1.1740
 1432SOL     OW 4919   2.202   0.319   2.059 -0.4010  0.3008 -0.3542
 1432SOL    HW1 4920   2.213   0.415   2.084  0.3390  0.2974 -0.6528
 1432SOL    HW2 4921   2.202   0.262   2.142  0.8117  0.4033 -0.2721
 1433SOL     OW 4922   0.722   4.664   2.736  0.1740 -0.3426 -0.0569
 1433SOL    HW1 4923   0.779   4.662   2.654  0.8300  0.0216  0.3755
 1433SOL    HW2 4924   0.725   4.755   2.777 -0.6250 -0.3564  0.0452
 1434SOL     OW 4925   0.597   0.272   2.677 -0.3268  0.5712 -0.8163
 1434SOL    HW1 4926   0.635   0.355   2.719  0.2639  0.6580 -1.4923
 1434SOL    HW2 4927   0.646   0.253   2.591 -1.0843  0.0477 -1.1430
 1435SOL     OW 4928   3.712   2.141   0.412  0.2838  0.5506  0.0618
 1435SOL    HW1 4929   3.770   2.222   0.409 -0.0540  0.7746 -0.6084
 1435SOL    HW2 4930   3.617   2.167   0.393  0.2877 -0.0936 -0.8939
 1436SOL     OW 4931   1.331   0.968   1.958  0.2676 -0.3029  0.4606
 1436SOL    HW1 4932   1.356   0.893   2.019  0.6793 -2.1894 -1.8793
 1436SOL    HW2 4933   1.414   1.014   1.926  0.2280 -0.9000 -0.5317
 1437SOL     OW 4934   3.681   2.085   3.114  0.2032 -0.3751  0.2385
 1437SOL    HW1 4935   3.682   1.992   3.079  0.0750 -0.4998  0.5673
 1437SOL    HW2 4936   3.638   2.087   3.204 -1.8844  0.3383 -0.6998
 1438SOL     OW 4937   1.546   1.106   1.915 -0.2169 -0.3978 -0.8012
 1438SOL    HW1 4938   1.563   1.162   1.834 -1.5419 -0.1101 -0.9087
 1438SOL    HW2 4939   1.536   1.165   1.995 -1.1239 -0.4873 -0.8306
 1439SOL     OW 4940   4.385   2.750   1.780 -0.2598 -0.3566 -0.2647
 1439SOL    HW1 4941   4.363   2.747   1.683 -0.5048  0.0445 -0.2230
 1439SOL    HW2 4942   4.301   2.766   1.833  0.2622  2.5700 -0.1820
 1440SOL     OW 4943   2.668   4.076   4.285 -0.1322  0.1443  0.5209
 1440SOL    HW1 4944   2.685   3.987   4.330 -0.6795  0.2069  0.8590
 1440SOL    HW2 4945   2.578   4.110   4.312 -1.3497 -0.7402 -2.1681
 1441SOL     OW 4946   4.612   0.825   4.080  0.3507  0.0005  0.5156
 1441SOL    HW1 4947   4.707   0.795   4.081  0.5111  0.4786  0.2068
 1441SOL    HW2 4948   4.554   0.754   4.039  1.1473  1.2535 -3.1151
 1442SOL     OW 4949   2.359   0.994   1.168  0.0025  0.3869 -0.2980
 1442SOL    HW1 4950   2.363   1.064   1.096  0.2469  1.4097  0.6848
 1442SOL    HW2 4951   2.280   1.011   1.226 -0.0763 -0.3185 -0.1924
 1443SOL     OW 4952   3.572   3.268   2.133 -0.1029  0.5474 -0.3802
 1443SOL    HW1 4953   3.582   3.357   2.089  1.4948  0.6581  0.1459
 1443SOL    HW2 4954   3.526   3.279   2.221 -3.4981  0.3025 -1.9513
 1444SOL     OW 4955   3.478   0.750   3.039  0.0815 -0.2094  0.4026
 1444SOL    HW1 4956   3.450   0.673   3.096  0.7378 -0.4947  0.3433
 1444SOL    HW2 4957   3.404   0.817   3.036 -1.2590 -1.6516 -1.0491
 1445SOL     OW 4958   0.451   3.827   0.230  0.2875  0.6032  0.7148
 1445SOL    HW1 4959   0.489   3.745   0.188  3.5031  2.2634  0.0465
 1445SOL    HW2 4960   0.369   3.855   0.179  1.3057 -0.1242 -1.4523
 1446SOL     OW 4961   0.923   4.097   0.359  0.0175  0.2433 -0.1006
 1446SOL    HW1 4962   0.900   4.194   0.346 -1.1630  0.0404  0.4333
 1446SOL    HW2 4963   0.842   4.046   0.386  0.9067 -0.6666  0.9631
 1447SOL     OW 4964   0.030   4.193   0.931 -0.0138 -0.1866  0.1229
 1447SOL    HW1 4965   0.038   4.238   0.843 -1.4470  2.6171  1.2906
 1447SOL    HW2 4966   0.119   4.191   0.977 -0.0588  2.6365  0.4882
 1448SOL     OW 4967   0.808   0.602   4.814  0.1524  0.5329 -0.2831
 1448SOL    HW1 4968   0.734   0.541   4.786  1.0754 -1.5121  1.4258
 1448SOL    HW2 4969   0.851   0.642   4.733 -0.4743 -1.1401 -1.5046
 1449SOL     OW 4970   4.896   3.193   2.140 -0.5846  0.3374 -0.7581
 1449SOL    HW1 4971   4.807   3.151   2.119  0.5957 -2.2419 -1.0725
 1449SOL    HW2 4972   4.907   3.276   2.087 -3.1213  1.2001 -0.0831
 1450SOL     OW 4973   0.944   3.245   3.129 -0.4854  0.4559 -0.0433
 1450SOL    HW1 4974   0.855   3.213   3.163 -1.2167 -0.2214 -2.4336
 1450SOL    HW2 4975   0.971   3.189   3.051  2.5962 -0.0308  1.2427
 1451SOL     OW 4976   0.657   0.600   3.678 -0.2479  0.3633  0.1730
 1451SOL    HW1 4977   0.565   0.635   3.692 -0.4363  0.7966 -1.8224
 1451SOL    HW2 4978   0.723   0.676   3.687 -0.0514  0.0638  1.5467
 1452SOL     OW 4979   0.296   4.082   0.514 -0.3514  0.3616 -0.0007
 1452SOL    HW1 4980   0.265   3.989   0.530  3.4594 -1.4384 -1.8068
 1452SOL    HW2 4981   0.376   4.101   0.571 -0.1663  2.0044 -0.7296
 1453SOL     OW 4982   3.414   1.290   4.457  0.3165 -0.4766 -0.2751
 1453SOL    HW1 4983   3.389   1.208   4.508 -0.4650  0.4126  0.8345
 1453SOL    HW2 4984   3.450   1.359   4.521 -0.5811  0.6331 -0.9328
 1454SOL     OW 4985   0.167   4.811   3.326  0.1773  1.2277  0.3255
 1454SOL    HW1 4986   0.106   4.775   3.255  0.3308 -0.7592  1.1506
 1454SOL    HW2 4987   0.261   4.808   3.293  0.0853  1.9851 -0.0291
 1455SOL     OW 4988   0.280   4.847   4.854  0.6107  0.3488  0.4240
 1455SOL    HW1 4989   0.298   4.759   4.897 -0.0408 -0.6485 -1.2704
 1455SOL    HW2 4990   0.185   4.851   4.823  1.2061  0.7327 -1.4870
 1456SOL     OW 4991   2.631   0.622   0.705  0.6130 -0.5707  0.4880
 1456SOL    HW1 4992   2.617   0.716   0.677  0.7791 -0.2774  1.3612
 1456SOL    HW2 4993   2.711   0.585   0.658  0.7568 -0.1623  0.4101
 1457SOL     OW 4994   0.153   2.342   3.036  0.1354  0.2439  0.1783
 1457SOL    HW1 4995   0.065   2.328   3.083  0.9385 -0.4375  1.5462
 1457SOL    HW2 4996   0.172   2.440   3.030 -0.3164  0.3674  0.6682
 1458SOL     OW 4997   4.207   3.552   4.087 -0.6061  0.4020  0.0780
 1458SOL    HW1 4998   4.197   3.467   4.035 -0.1442  0.2025  0.3047
 1458SOL    HW2 4999   4.239   3.625   4.027  1.6532 -0.2467  0.3803
 1459SOL     OW 5000   2.258   3.476   3.259  0.0935  0.5040  0.3338
 1459SOL    HW1 5001   2.195   3.400   3.274  0.2946  0.1777 -0.4653
 1459SOL    HW2 5002   2.303   3.499   3.346  0.2992 -0.5291  0.5147
 1460SOL     OW 5003   1.366   0.441   2.294 -0.6617  0.3804 -0.0962
 1460SOL    HW1 5004   1.422   0.457   2.375 -3.1375  1.2153  1.5807
 1460SOL    HW2 5005   1.330   0.348   2.297  0.3552 -0.0688 -1.0370
 1461SOL     OW 5006   3.092   4.288   4.206 -0.3601 -0.0508  0.0867
 1461SOL    HW1 5007   3.114   4.254   4.298 -1.3385  2.2816  1.2792
 1461SOL    HW2 5008   3.137   4.377   4.193 -0.2800 -0.3254 -1.7124
 1462SOL     OW 5009   1.896   3.172   0.920  0.4896 -0.2838  0.4216
 1462SOL    HW1 5010   1.911   3.079   0.953 -0.5890 -0.9776 -0.9640
 1462SOL    HW2 5011   1.930   3.181   0.827 -1.0630  0.1510 -0.1395
 1463SOL     OW 5012   4.686   4.326   3.773 -0.2568  0.0155 -0.0663
 1463SOL    HW1 5013   4.750   4.371   3.836 -0.1405 -0.8994  0.4773
 1463SOL    HW2 5014   4.723   4.330   3.680  0.6370 -0.5726  0.2490
 1464SOL     OW 5015   2.236   1.835   4.231 -0.8577 -0.8143  0.3660
 1464SOL    HW1 5016   2.252   1.837   4.132  0.9216  0.8534  0.6376
 1464SOL    HW2 5017   2.240   1.740   4.263 -0.8132 -1.3181 -1.0587
 1465SOL     OW 5018   2.982   3.353   0.343  0.1499  0.2486  0.1831
 1465SOL    HW1 5019   3.045   3.415   0.296 -0.8613  0.8816 -0.3753
 1465SOL    HW2 5020   2.994   3.363   0.442  1.4504 -0.2125  0.0960
 1466SOL     OW 5021   3.020   2.441   0.950  0.5074 -0.0118 -0.4277
 1466SOL    HW1 5022   2.972   2.355   0.929  1.2573 -0.7239  0.6245
 1466SOL    HW2 5023   3.119   2.423   0.954  0.5392  0.3393  2.1057
 1467SOL     OW 5024   0.596   3.921   4.270 -0.0951  0.2787  0.0050
 1467SOL    HW1 5025   0.662   3.996   4.276 -0.9739  1.0093  0.9429
 1467SOL    HW2 5026   0.637   3.844   4.220  0.4805  1.7248 -1.8244
 1468SOL     OW 5027   1.001   2.929   1.417  0.5475 -0.5235 -0.0844
 1468SOL    HW1 5028   1.095   2.956   1.397  0.9138  0.3494  2.3557
 1468SOL    HW2 5029   0.949   3.010   1.445 -1.2993 -0.8006 -2.4890
 1469SOL     OW 5030   4.628   0.817   3.354 -0.6002 -0.8049  0.7001
 1469SOL    HW1 5031   4.705   0.832   3.291 -1.5682 -0.4419 -0.4389
 1469SOL    HW2 5032   4.636   0.880   3.431  0.8755 -1.5927  1.2289
 1470SOL     OW 5033   3.131   1.348   2.466 -0.1189 -0.1921 -0.8681
 1470SOL    HW1 5034   3.079   1.399   2.398 -0.9019 -2.4610 -2.1020
 1470SOL    HW2 5035   3.228   1.351   2.444  0.0678  2.0589  0.0510
 1471SOL     OW 5036   1.974   1.560   2.984  0.4834  0.2168 -0.0953
 1471SOL    HW1 5037   1.894   1.600   2.939  1.5538  0.9528 -1.3960
 1471SOL    HW2 5038   2.057   1.583   2.933  1.2458 -3.4879 -0.8587
 1472SOL     OW 5039   1.363   0.122   0.087  0.0113  0.4142 -0.0795
 1472SOL    HW1 5040   1.425   0.049   0.060 -0.2511 -0.1681  0.8254
 1472SOL    HW2 5041   1.333   0.173   0.007  1.4191  0.5243 -0.5650
 1473SOL     OW 5042   4.114   4.363   4.354  0.6120  0.2757 -0.3202
 1473SOL    HW1 5043   4.125   4.278   4.406 -0.1022  0.0333 -0.5515
 1473SOL    HW2 5044   4.134   4.345   4.258  0.1321  0.2912 -0.4226
 1474SOL     OW 5045   0.672   0.747   2.685  0.1170 -0.6191 -0.0295
 1474SOL    HW1 5046   0.581   0.749   2.644 -0.1150 -1.0158  0.4515
 1474SOL    HW2 5047   0.694   0.837   2.722 -0.0999 -0.5326 -0.1116
 1475SOL     OW 5048   2.949   2.134   1.659 -0.8981 -0.0124 -0.3136
 1475SOL    HW1 5049   2.909   2.117   1.749 -0.8452  2.0916  0.1485
 1475SOL    HW2 5050   3.048   2.124   1.664 -0.9130 -0.1110 -0.2018
 1476SOL     OW 5051   2.521   2.948   4.201  0.4826  0.2881 -0.1074
 1476SOL    HW1 5052   2.494   3.039   4.171  1.5359  0.8068  0.4358
 1476SOL    HW2 5053   2.608   2.924   4.158 -0.2674 -0.8826 -1.0074
 1477SOL     OW 5054   3.259   0.139   2.740  0.4472 -0.5231 -0.1151
 1477SOL    HW1 5055   3.256   0.169   2.645  2.8606 -2.5382 -0.9330
 1477SOL    HW2 5056   3.166   0.134   2.777 -0.4005  2.5763 -1.5394
 1478SOL     OW 5057   2.190   4.339   3.581 -0.2075  0.2235 -0.6060
 1478SOL    HW1 5058   2.137   4.307   3.502 -1.4301  1.9295 -0.5334
 1478SOL    HW2 5059   2.144   4.311   3.665  0.4839 -0.6007 -0.4833
 1479SOL     OW 5060   0.713   1.127   3.780  0.4021 -0.3616 -0.4315
 1479SOL    HW1 5061   0.689   1.206   3.723  0.6365 -0.6324 -0.9088
 1479SOL    HW2 5062   0.788   1.152   3.841  2.3329 -0.9572 -2.4295
 1480SOL     OW 5063   0.515   3.258   2.730 -0.3703 -0.2523 -0.1591
 1480SOL    HW1 5064   0.418   3.282   2.734 -1.2113 -2.1514 -4.2840
 1480SOL    HW2 5065   0.561   3.317   2.664  1.1279  0.0670  1.1254
 1481SOL     OW 5066   3.880   2.363   0.366  0.0462 -0.3223  0.4091
 1481SOL    HW1 5067   3.917   2.433   0.427 -0.9844 -0.6212  1.4103
 1481SOL    HW2 5068   3.937   2.357   0.284  0.2578  1.5694  0.3662
 1482SOL     OW 5069   0.287   3.253   3.537 -0.4342  0.1328  0.0726
 1482SOL    HW1 5070   0.315   3.227   3.445 -0.6653  4.8417 -1.6218
 1482SOL    HW2 5071   0.189   3.239   3.547 -0.5892  0.4903 -0.8294
 1483SOL     OW 5072   1.035   2.835   1.674 -0.5004  0.2758  0.1673
 1483SOL    HW1 5073   0.994   2.848   1.584  1.6981  2.0653 -0.6798
 1483SOL    HW2 5074   1.009   2.912   1.733 -0.4906  0.0412  0.4773
 1484SOL     OW 5075   4.699   3.217   3.411 -0.1306 -0.0621  0.2817
 1484SOL    HW1 5076   4.684   3.315   3.395  1.3511  0.4818  1.9022
 1484SOL    HW2 5077   4.655   3.164   3.339 -1.4602  1.7664 -0.3235
 1485SOL     OW 5078   3.588   0.193   0.812 -0.3438 -0.5009 -0.0756
 1485SOL    HW1 5079   3.636   0.268   0.766  0.0404  0.5192  1.8684
 1485SOL    HW2 5080   3.508   0.230   0.861 -1.7162 -1.7994 -1.2175
 1486SOL     OW 5081   2.220   0.143   1.523  0.5438  0.6756  0.2789
 1486SOL    HW1 5082   2.237   0.178   1.615  3.0570 -1.8406  0.9264
 1486SOL    HW2 5083   2.122   0.143   1.505 -0.0032  1.5378  2.8227
 1487SOL     OW 5084   2.068   1.966   4.397  0.1146 -0.2913  0.3868
 1487SOL    HW1 5085   2.106   1.925   4.480 -0.0188 -0.1491  0.5185
 1487SOL    HW2 5086   2.109   1.923   4.317 -0.3850 -1.0285  0.5166
 1488SOL     OW 5087   2.555   3.931   2.312  0.0504 -0.6833  0.4932
 1488SOL    HW1 5088   2.507   3.894   2.233 -0.4453 -0.0456  0.4791
 1488SOL    HW2 5089   2.590   4.022   2.290 -2.0659  0.5021  1.6658
 1489SOL     OW 5090   2.268   0.163   0.492  0.3645 -0.0338 -0.6638
 1489SOL    HW1 5091   2.315   0.093   0.546 -1.5804  0.5623  2.0239
 1489SOL    HW2 5092   2.290   0.254   0.529 -1.8884  0.3182 -0.0409
 1490SOL     OW 5093   1.688   2.762   2.602 -0.1774 -0.3083 -0.2038
 1490SOL    HW1 5094   1.740   2.678   2.620  1.7962  0.9186  0.1663
 1490SOL    HW2 5095   1.708   2.793   2.509 -2.6603 -1.3841 -1.1717
 1491SOL     OW 5096   4.895   2.861   3.933 -0.7222  0.4382  0.0153
 1491SOL    HW1 5097   4.894   2.951   3.890 -1.4916  0.3739 -0.1120
 1491SOL    HW2 5098   4.825   2.857   4.004  0.3759  0.4602  1.1369
 1492SOL     OW 5099   2.710   1.718   0.501 -0.2574 -0.3776  0.4869
 1492SOL    HW1 5100   2.651   1.740   0.423  0.2965  0.0190  0.1661
 1492SOL    HW2 5101   2.678   1.634   0.544 -1.1360 -0.0909  0.4127
 1493SOL     OW 5102   0.549   1.244   1.711 -0.4936  0.5620  0.0763
 1493SOL    HW1 5103   0.614   1.320   1.722  1.3483 -1.2710  3.0149
 1493SOL    HW2 5104   0.483   1.245   1.786 -1.5028  0.1536 -0.7744
 1494SOL     OW 5105   1.816   1.792   0.691 -0.2847 -0.5259 -0.3859
 1494SOL    HW1 5106   1.837   1.703   0.651 -0.4947 -1.4004  1.3567
 1494SOL    HW2 5107   1.739   1.833   0.643  1.3547 -0.1035 -2.8213
 1495SOL     OW 5108   2.941   4.212   1.735  0.6556  0.1405 -0.6981
 1495SOL    HW1 5109   2.873   4.215   1.809  0.6898  0.4655 -0.6815
 1495SOL    HW2 5110   3.033   4.212   1.775  0.6711 -1.3655 -0.6737
 1496SOL     OW 5111   2.151   0.054   1.031 -0.2057  0.0146  0.5033
 1496SOL    HW1 5112   2.225   0.027   1.092 -1.1446 -0.8820  1.2824
 1496SOL    HW2 5113   2.086  -0.021   1.021  1.3458 -0.9997 -3.9777
 1497SOL     OW 5114   3.199   0.655   1.969 -0.2722 -0.3182  0.2626
 1497SOL    HW1 5115   3.180   0.584   1.902  1.3347 -0.4079 -0.1259
 1497SOL    HW2 5116   3.281   0.705   1.943 -0.2522  0.3874  1.5751
 1498SOL     OW 5117   3.391   2.797   4.080  0.2825  0.5881  0.3944
 1498SOL    HW1 5118   3.449   2.729   4.125 -0.1025  0.9328  1.4423
 1498SOL    HW2 5119   3.350   2.857   4.149 -1.2473  0.4083 -0.3117
 1499SOL     OW 5120   2.728   4.836   4.072 -0.6213  0.2405  0.1643
 1499SOL    HW1 5121   2.637   4.870   4.095  0.2120  1.9961  1.1039
 1499SOL    HW2 5122   2.743   4.844   3.974 -1.0657  1.0485  0.1528
 1500SOL     OW 5123   2.003   2.718   2.955  0.2778 -0.1989  0.2276
 1500SOL    HW1 5124   1.962   2.633   2.988 -1.1490  0.8489  1.2485
 1500SOL    HW2 5125   2.098   2.700   2.928  0.6210 -1.7338  2.2009
 1501SOL     OW 5126   0.567   1.948   0.035 -0.0555 -0.0965  0.2192
 1501SOL    HW1 5127   0.548   1.857   0.072  0.4194 -0.0875  0.4972
 1501SOL    HW2 5128   0.496   2.012   0.065 -1.0810 -0.6310 -1.0058
 1502SOL     OW 5129   2.353   3.265   1.561 -0.4227 -0.3481 -0.3558
 1502SOL    HW1 5130   2.280   3.312   1.610 -0.3188 -0.0303 -0.5014
 1502SOL    HW2 5131   2.356   3.296   1.466 -0.6146 -0.9531 -0.5627
 1503SOL     OW 5132   2.947   2.887   3.681  0.4440  0.1472  0.3559
 1503SOL    HW1 5133   3.032   2.939   3.691 -1.1117  2.8630  0.5718
 1503SOL    HW2 5134   2.948   2.837   3.595  0.7365  3.4016 -1.6923
 1504SOL     OW 5135   3.482   0.669   4.468  0.2325 -0.5555  0.0468
 1504SOL    HW1 5136   3.434   0.641   4.385  0.1190 -0.4029  0.0619
 1504SOL    HW2 5137   3.554   0.734   4.445  2.2359 -2.7869 -0.3442
 1505SOL     OW 5138   4.564   3.056   4.334  0.6958  0.1242 -0.3480
 1505SOL    HW1 5139   4.479   3.072   4.283  0.7283  1.3242 -0.0421
 1505SOL    HW2 5140   4.553   2.977   4.393  0.7099 -1.4531 -2.3230
 1506SOL     OW 5141   4.225   3.577   4.691  0.1465 -0.8431  0.2952
 1506SOL    HW1 5142   4.177   3.490   4.686  0.5825 -1.1887  1.5932
 1506SOL    HW2 5143   4.284   3.578   4.772  0.5388  0.4632  0.0243
 1507SOL     OW 5144   0.963   4.251   2.923 -0.0984  0.3393 -0.1097
 1507SOL    HW1 5145   1.032   4.264   2.995 -0.4212  0.6391  0.1492
 1507SOL    HW2 5146   0.913   4.336   2.910 -1.3802 -0.2606  0.7176
 1508SOL     OW 5147   3.351   4.799   4.265  0.8311  0.4233 -0.4573
 1508SOL    HW1 5148   3.300   4.812   4.351  1.7076 -0.5740  0.2321
 1508SOL    HW2 5149   3.427   4.864   4.262  2.2156 -1.0608  0.6613
 1509SOL     OW 5150   2.086   4.770   0.031 -0.3154  0.0453  0.4421
 1509SOL    HW1 5151   2.053   4.687  -0.013 -0.2357  0.0167  0.4359
 1509SOL    HW2 5152   2.115   4.749   0.124 -2.5687  0.5111  1.3144
 1510SOL     OW 5153   4.637   1.747   0.637 -0.2502 -0.0038  0.1876
 1510SOL    HW1 5154   4.586   1.661   0.646 -0.2015 -0.1000 -0.4377
 1510SOL    HW2 5155   4.674   1.773   0.727 -0.7028 -0.3617  0.4811
 1511SOL     OW 5156   2.107   2.563   3.197  0.0541  0.1350 -0.4114
 1511SOL    HW1 5157   2.087   2.638   3.261 -0.0380  0.8442 -1.2477
 1511SOL    HW2 5158   2.203   2.537   3.205  0.9979  2.6022 -2.3626
 1512SOL     OW 5159   0.642   1.988   3.977  0.1849 -0.0346  0.0898
 1512SOL    HW1 5160   0.735   2.017   3.955  0.7654  0.2208  2.5816
 1512SOL    HW2 5161   0.635   1.889   3.968  0.9899 -0.1671  0.8273
 1513SOL     OW 5162   1.440   0.400   0.782 -0.0925  0.3219 -0.1870
 1513SOL    HW1 5163   1.459   0.354   0.696  0.7736  1.7402 -0.7941
 1513SOL    HW2 5164   1.345   0.383   0.809  0.0533 -1.3657 -0.6149
 1514SOL     OW 5165   3.318   3.192   3.582 -0.2635  0.8121  0.2025
 1514SOL    HW1 5166   3.411   3.191   3.620 -0.4745  1.5320  0.7598
 1514SOL    HW2 5167   3.323   3.185   3.482  0.4163  1.3817  0.1895
 1515SOL     OW 5168   4.651   0.917   0.948  0.5221 -0.2704 -0.5040
 1515SOL    HW1 5169   4.729   0.977   0.966 -0.0257  0.5002 -0.6268
 1515SOL    HW2 5170   4.614   0.882   1.034  0.2083  0.4105 -0.3546
 1516SOL     OW 5171   3.240   2.201   4.718  0.2916 -0.7546  0.3020
 1516SOL    HW1 5172   3.222   2.105   4.741  1.4917 -1.3000 -0.9338
 1516SOL    HW2 5173   3.338   2.217   4.714  0.1057  0.5084  0.3438
 1517SOL     OW 5174   1.047   4.378   3.228 -0.9289 -0.1685 -0.0270
 1517SOL    HW1 5175   0.949   4.373   3.249 -1.4580  2.5165 -1.4267
 1517SOL    HW2 5176   1.094   4.429   3.301 -0.5631 -1.3281  0.5702
 1518SOL     OW 5177   3.072   1.890   1.076  0.5316  0.5930  0.1019
 1518SOL    HW1 5178   3.151   1.863   1.020  0.6053 -1.5966  1.1544
 1518SOL    HW2 5179   3.056   1.821   1.147 -4.1218 -0.7264 -1.8196
 1519SOL     OW 5180   2.939   4.157   1.467 -0.4827 -0.0817  0.1954
 1519SOL    HW1 5181   2.961   4.165   1.564 -1.6453 -0.7515  0.5229
 1519SOL    HW2 5182   2.959   4.244   1.421 -0.5499  0.4490  1.1496
 1520SOL     OW 5183   1.776   1.218   4.532 -0.9049 -0.4790 -0.3625
 1520SOL    HW1 5184   1.696   1.189   4.584 -0.4606 -0.7154  0.2054
 1520SOL    HW2 5185   1.796   1.314   4.550 -0.5754 -0.6392  0.1470
 1521SOL     OW 5186   0.901   3.550   4.433 -0.1763 -0.0269  0.3848
 1521SOL    HW1 5187   0.985   3.517   4.476  0.4618  1.1163  0.0440
 1521SOL    HW2 5188   0.910   3.647   4.410 -1.6960  0.2013  0.6056
 1522SOL     OW 5189   1.525   4.326   2.717 -0.1485  0.3651 -0.4504
 1522SOL    HW1 5190   1.494   4.268   2.641 -0.4036 -1.3401  0.8969
 1522SOL    HW2 5191   1.555   4.268   2.793  2.3065  1.9845 -0.0632
 1523SOL     OW 5192   0.429   0.382   2.942  0.2275  0.0862 -0.3297
 1523SOL    HW1 5193   0.336   0.347   2.951 -0.3822  1.8136  0.5349
 1523SOL    HW2 5194   0.446   0.409   2.847 -1.4173  2.9384  0.0963
 1524SOL     OW 5195   2.361   1.591   4.741 -0.9140 -0.3738 -0.2918
 1524SOL    HW1 5196   2.438   1.543   4.782 -1.6214  0.2975  2.0011
 1524SOL    HW2 5197   2.384   1.688   4.730 -0.2702 -0.7593 -2.8273
 1525SOL     OW 5198   0.624   4.242   4.478 -0.6756  0.1150  0.2414
 1525SOL    HW1 5199   0.539   4.196   4.505 -1.1442  1.2102  0.6700
 1525SOL    HW2 5200   0.606   4.339   4.463  0.6141  0.4648  0.8483
 1526SOL     OW 5201   0.062   0.868   0.879  0.1316 -0.0930  0.4189
 1526SOL    HW1 5202   0.027   0.870   0.785 -1.6563  0.2905  1.0636
 1526SOL    HW2 5203   0.146   0.815   0.881  0.9837  1.0336 -1.6462
 1527SOL     OW 5204   1.120   4.291   1.717  0.3673  0.1259  0.3984
 1527SOL    HW1 5205   1.180   4.215   1.741 -0.3364 -0.6547 -0.2667
 1527SOL    HW2 5206   1.142   4.370   1.775  1.5046 -0.3792  0.6914
 1528SOL     OW 5207   1.925   4.032   4.575 -0.1312  0.5948  0.2486
 1528SOL    HW1 5208   1.880   4.108   4.622  0.1833 -0.0746  1.7006
 1528SOL    HW2 5209   2.019   4.024   4.607 -0.3440 -0.7712  0.5868
 1529SOL     OW 5210   3.882   0.898   1.520  0.4110  0.1842  0.0340
 1529SOL    HW1 5211   3.969   0.863   1.555  0.7076  0.0120 -0.8504
 1529SOL    HW2 5212   3.839   0.829   1.462  0.4449  0.8480 -0.7997
 1530SOL     OW 5213   2.751   3.201   2.609 -0.2679 -0.0009 -0.0023
 1530SOL    HW1 5214   2.707   3.290   2.609 -0.4286 -0.0712  0.8889
 1530SOL    HW2 5215   2.850   3.212   2.599 -0.3956  0.1957 -1.2273
 1531SOL     OW 5216   1.494   2.141   0.767  0.7307 -0.7471 -0.4041
 1531SOL    HW1 5217   1.513   2.235   0.740 -2.0803 -0.2749 -0.9894
 1531SOL    HW2 5218   1.449   2.139   0.856  2.0374 -1.6997  0.2852
 1532SOL     OW 5219   0.604   4.608   1.808 -0.0466  0.1451 -0.1859
 1532SOL    HW1 5220   0.508   4.584   1.815 -0.2833  1.1536  0.1047
 1532SOL    HW2 5221   0.633   4.657   1.891  0.1755  1.6381 -1.1045
 1533SOL     OW 5222   3.647   0.550   0.956 -0.3383 -0.1118 -0.0303
 1533SOL    HW1 5223   3.672   0.498   1.038 -0.2276 -0.2043 -0.1232
 1533SOL    HW2 5224   3.696   0.514   0.877 -0.8838 -0.3901 -0.2434
 1534SOL     OW 5225   4.189   2.312   4.733 -0.7314 -0.7202  0.1448
 1534SOL    HW1 5226   4.260   2.272   4.675 -1.9029  0.1097 -1.9631
 1534SOL    HW2 5227   4.233   2.355   4.813  1.0801 -0.7240 -0.7834
 1535SOL     OW 5228   0.535   3.927   0.903  0.2302 -0.4269 -0.4212
 1535SOL    HW1 5229   0.564   3.854   0.840  1.7227 -2.0265  1.9738
 1535SOL    HW2 5230   0.447   3.902   0.944  0.4066 -0.5357 -0.1107
 1536SOL     OW 5231   2.466   0.198   4.230 -0.5129 -0.1623 -0.2385
 1536SOL    HW1 5232   2.434   0.287   4.263  0.1790  0.3004 -0.7812
 1536SOL    HW2 5233   2.391   0.150   4.184 -0.9267  0.0640  0.1819
 1537SOL     OW 5234   3.856   4.020   4.172 -0.6793 -0.4626 -0.6171
 1537SOL    HW1 5235   3.780   4.043   4.112 -1.0078  2.0455  0.6419
 1537SOL    HW2 5236   3.940   4.013   4.118 -1.1228  0.8452 -1.5334
 1538SOL     OW 5237   0.647   2.814   1.476  0.0987 -0.3512 -0.5406
 1538SOL    HW1 5238   0.741   2.849   1.473  0.3409 -0.9284  0.2261
 1538SOL    HW2 5239   0.633   2.763   1.560 -1.0913  0.2332 -0.3683
 1539SOL     OW 5240   1.821   2.409   1.532 -0.0620 -0.1930 -0.7342
 1539SOL    HW1 5241   1.894   2.406   1.600 -1.0265 -2.7722  0.3356
 1539SOL    HW2 5242   1.793   2.316   1.509 -2.2200  0.6757 -1.9945
 1540SOL     OW 5243   2.615   3.447   2.594 -1.0539  0.0393 -0.6911
 1540SOL    HW1 5244   2.534   3.505   2.582 -1.1309 -0.1584 -1.1481
 1540SOL    HW2 5245   2.643   3.448   2.690  0.5226  2.9078 -1.1009
 1541SOL     OW 5246   1.346   4.697   3.736 -0.2477 -0.0566 -0.2442
 1541SOL    HW1 5247   1.374   4.605   3.708 -2.2203 -0.9177  0.4155
 1541SOL    HW2 5248   1.346   4.757   3.656 -0.7586 -1.1218 -1.0802
 1542SOL     OW 5249   0.431   3.672   1.373  0.5927  0.5630  0.3544
 1542SOL    HW1 5250   0.476   3.656   1.461  0.6447  1.4137  0.4941
 1542SOL    HW2 5251   0.485   3.630   1.300 -0.4255 -1.7899  0.8894
 1543SOL     OW 5252   2.039   2.222   4.830  0.2739 -0.1397 -0.2952
 1543SOL    HW1 5253   1.953   2.209   4.780  1.2624 -2.0545 -1.5989
 1543SOL    HW2 5254   2.075   2.313   4.810 -0.3312 -0.1430 -1.5351
 1544SOL     OW 5255   0.454   0.468   2.045 -0.2860  0.2119  0.4184
 1544SOL    HW1 5256   0.460   0.481   2.144  3.5599  0.7509  0.2488
 1544SOL    HW2 5257   0.480   0.375   2.022  0.1904  0.4851 -0.1653
 1545SOL     OW 5258   1.391   0.074   0.351 -0.2090 -0.1477  0.1985
 1545SOL    HW1 5259   1.304   0.095   0.396 -0.6693  0.3657 -0.8729
 1545SOL    HW2 5260   1.382   0.092   0.253  1.4432  1.0140  0.2194
 1546SOL     OW 5261   4.696   4.825   0.295  0.0198 -0.4041 -0.1938
 1546SOL    HW1 5262   4.790   4.839   0.328 -0.1588 -0.7367  0.4838
 1546SOL    HW2 5263   4.695   4.749   0.230  0.4725  0.6284 -1.4443
 1547SOL     OW 5264   4.550   0.288   1.714  0.0756  0.3100 -0.0506
 1547SOL    HW1 5265   4.608   0.281   1.795  1.0713 -1.7158 -0.8617
 1547SOL    HW2 5266   4.473   0.225   1.722 -0.0824  0.4369 -0.4938
 1548SOL     OW 5267   1.736   4.353   3.094  0.5457 -0.1376  0.5557
 1548SOL    HW1 5268   1.678   4.279   3.061  0.0648  0.2588  0.4941
 1548SOL    HW2 5269   1.801   4.379   3.023  0.6867 -0.4668  0.5619
 1549SOL     OW 5270   2.088   3.836   2.101  0.3593  0.4470 -0.2975
 1549SOL    HW1 5271   2.186   3.855   2.101  0.3340  0.7620 -2.5551
 1549SOL    HW2 5272   2.046   3.870   2.017 -1.8252  0.8449  0.8474
 1550SOL     OW 5273   4.386   2.576   2.044 -0.5711  1.2255  0.0118
 1550SOL    HW1 5274   4.383   2.605   1.949 -1.0639 -0.3335 -0.4789
 1550SOL    HW2 5275   4.421   2.651   2.101  0.9699  1.7439 -1.5439
 1551SOL     OW 5276   3.954   4.696   4.193  0.3807  0.0289 -0.4770
 1551SOL    HW1 5277   3.904   4.649   4.265  0.2965 -2.7374 -2.1991
 1551SOL    HW2 5278   4.049   4.711   4.221 -0.1374  0.8955  0.9339
 1552SOL     OW 5279   1.133   1.797   0.084 -0.4421 -0.2931  0.5749
 1552SOL    HW1 5280   1.092   1.881   0.048 -0.2890 -1.0486 -1.5084
 1552SOL    HW2 5281   1.073   1.719   0.063  0.6283 -1.0271  0.1697
 1553SOL     OW 5282   1.526   1.027   0.269 -0.1443  0.5707 -0.0448
 1553SOL    HW1 5283   1.547   0.930   0.282 -0.0984  0.3942 -1.2366
 1553SOL    HW2 5284   1.611   1.077   0.250 -0.0890  0.9673  1.2044
 1554SOL     OW 5285   2.705   2.956   0.529  0.1745 -0.2853  0.0567
 1554SOL    HW1 5286   2.617   2.939   0.483 -0.3045 -1.6134  1.3950
 1554SOL    HW2 5287   2.717   3.054   0.542 -1.9804 -0.1473  1.4424
 1555SOL     OW 5288   3.849   0.289   4.439  0.5436  0.9274 -0.0069
 1555SOL    HW1 5289   3.812   0.203   4.402  1.1941  0.2346  0.9059
 1555SOL    HW2 5290   3.809   0.366   4.389 -1.9771  0.2314  0.7456
 1556SOL     OW 5291   1.919   0.700   1.679  0.6830 -0.6314 -0.1795
 1556SOL    HW1 5292   1.989   0.631   1.695  0.2547 -1.1051 -0.3322
 1556SOL    HW2 5293   1.834   0.656   1.648  0.0625 -0.1431  0.7816
 1557SOL     OW 5294   4.856   2.153   0.076  0.2968 -1.0130 -0.7877
 1557SOL    HW1 5295   4.763   2.134   0.044 -0.9810  2.2601  0.5099
 1557SOL    HW2 5296   4.896   2.070   0.115 -3.0864 -2.0211  0.8969
 1558SOL     OW 5297   4.652   0.100   3.278  0.3485  0.2931 -0.1704
 1558SOL    HW1 5298   4.702   0.180   3.246  0.7834  0.5954  1.1964
 1558SOL    HW2 5299   4.715   0.037   3.322 -0.0962 -0.5146 -0.6616
 1559SOL     OW 5300   0.228   1.540   0.475  0.5259  0.5126 -0.1396
 1559SOL    HW1 5301   0.208   1.637   0.491 -0.8787 -0.0793  2.1912
 1559SOL    HW2 5302   0.327   1.526   0.472  0.7595  1.9090  0.2957
 1560SOL     OW 5303   1.197   0.684   1.261 -0.4791  0.0983 -0.3458
 1560SOL    HW1 5304   1.156   0.771   1.291  0.7368  0.2999  0.8311
 1560SOL    HW2 5305   1.268   0.703   1.193 -1.7491 -0.1864 -1.7935
 1561SOL     OW 5306   4.682   3.068   4.724 -0.2600 -0.5605 -0.5578
 1561SOL    HW1 5307   4.694   3.001   4.797 -1.5187 -0.7448 -0.4950
 1561SOL    HW2 5308   4.741   3.045   4.648 -1.0222 -2.0638 -0.7419
 1562SOL     OW 5309   0.983   1.389   2.276  0.6852 -0.1661  0.2002
 1562SOL    HW1 5310   1.054   1.455   2.249  0.4168 -0.0586 -0.2552
 1562SOL    HW2 5311   0.954   1.338   2.195 -0.8775  0.8654  0.0715
 1563SOL     OW 5312   0.540   3.815   4.500 -0.0023  0.1834  0.2103
 1563SOL    HW1 5313   0.564   3.863   4.416 -0.6810  0.6904  0.3013
 1563SOL    HW2 5314   0.591   3.855   4.577  0.7526 -0.3957  0.0295
 1564SOL     OW 5315   2.503   1.837   0.333  0.1728  0.0823  0.0781
 1564SOL    HW1 5316   2.527   1.932   0.313 -0.0192  0.1044 -0.0454
 1564SOL    HW2 5317   2.424   1.810   0.278  0.2687 -0.1699  0.0631
 1565SOL     OW 5318   0.235   2.192   3.497  0.2714 -0.0087  0.2546
 1565SOL    HW1 5319   0.231   2.121   3.427  0.5980  0.2329 -0.0126
 1565SOL    HW2 5320   0.161   2.257   3.482 -0.2297 -0.4712  0.6979
 1566SOL     OW 5321   0.710   2.515   2.350 -0.5705 -0.4810  0.5891
 1566SOL    HW1 5322   0.703   2.446   2.277  0.3589  0.2495 -0.2169
 1566SOL    HW2 5323   0.723   2.469   2.438 -2.0237 -1.3906  0.3582
 1567SOL     OW 5324   2.249   0.106   3.803 -0.0765 -0.0378  0.6934
 1567SOL    HW1 5325   2.280   0.027   3.749 -0.6101 -0.5936  1.1851
 1567SOL    HW2 5326   2.149   0.102   3.813 -0.0300  0.3078  1.3333
 1568SOL     OW 5327   2.525   2.998   4.483 -0.1385  0.4329  0.3120
 1568SOL    HW1 5328   2.573   2.937   4.546  0.7373  1.5576  0.7803
 1568SOL    HW2 5329   2.556   2.983   4.390 -1.1577 -0.9760  0.1718
 1569SOL     OW 5330   2.870   4.573   0.900  0.0815 -0.3471  0.1814
 1569SOL    HW1 5331   2.925   4.502   0.945 -0.1556 -1.6655 -1.5237
 1569SOL    HW2 5332   2.822   4.533   0.822 -0.9131  1.4765 -0.1759
 1570SOL     OW 5333   4.911   2.866   0.641 -0.4744 -0.0578 -0.2876
 1570SOL    HW1 5334   5.001   2.841   0.677 -0.4276  1.4272  0.7371
 1570SOL    HW2 5335   4.891   2.813   0.559  0.1642 -2.3682  0.9760
 1571SOL     OW 5336   1.107   4.490   1.506 -0.2057 -0.2964 -0.3796
 1571SOL    HW1 5337   1.043   4.566   1.515  0.8695  0.6713 -0.6407
 1571SOL    HW2 5338   1.096   4.428   1.584 -2.4252 -0.9578 -1.1306
 1572SOL     OW 5339   0.426   0.445   2.313 -0.2829 -0.2223 -0.0460
 1572SOL    HW1 5340   0.370   0.516   2.355  1.2518  0.3292  1.1642
 1572SOL    HW2 5341   0.516   0.443   2.356 -0.0787 -2.5321 -0.4390
 1573SOL     OW 5342   3.446   0.200   3.503 -0.2733  0.6184  0.3817
 1573SOL    HW1 5343   3.381   0.157   3.566 -0.8988  0.1589 -0.5615
 1573SOL    HW2 5344   3.518   0.244   3.556  0.1194 -1.1462  1.3927
 1574SOL     OW 5345   4.784   1.257   2.467 -0.0987 -0.6554 -0.2966
 1574SOL    HW1 5346   4.879   1.250   2.437  0.5182 -0.9786  1.5646
 1574SOL    HW2 5347   4.765   1.184   2.534 -1.3400  0.0258  0.1300
 1575SOL     OW 5348   3.954   2.103   3.444  0.6382 -0.3857  0.1016
 1575SOL    HW1 5349   3.940   2.159   3.526 -2.0496 -1.2029  0.3058
 1575SOL    HW2 5350   3.953   2.006   3.471  2.8115 -0.6267 -0.5504
 1576SOL     OW 5351   4.474   3.688   1.172 -0.2421 -0.2180 -0.2469
 1576SOL    HW1 5352   4.422   3.631   1.108 -0.6290  0.9008 -0.9570
 1576SOL    HW2 5353   4.572   3.678   1.153 -0.1116 -2.5643  1.2943
 1577SOL     OW 5354   1.324   2.944   2.953 -0.2637  0.1537  0.2628
 1577SOL    HW1 5355   1.354   3.027   2.906  1.1560 -0.1364  0.6049
 1577SOL    HW2 5356   1.278   2.969   3.038  0.2192  0.5916  0.3979
 1578SOL     OW 5357   0.828   3.757   2.477 -0.2314  0.1727  0.4027
 1578SOL    HW1 5358   0.783   3.679   2.434  1.8782 -0.4131 -0.8957
 1578SOL    HW2 5359   0.887   3.725   2.552 -1.0560  0.8000  1.3521
 1579SOL     OW 5360   0.592   0.818   0.665  0.2009  0.4085  0.1170
 1579SOL    HW1 5361   0.513   0.875   0.685 -0.7260 -0.1738 -1.6000
 1579SOL    HW2 5362   0.588   0.734   0.719 -1.0710 -0.1766 -0.8355
 1580SOL     OW 5363   3.521   2.769   2.203 -0.2603 -0.2155  0.6690
 1580SOL    HW1 5364   3.491   2.862   2.182 -1.9598 -0.8916 -0.0571
 1580SOL    HW2 5365   3.472   2.704   2.144  1.8481 -1.5007  0.2303
 1581SOL     OW 5366   1.405   2.888   2.317 -0.1198  0.1187  0.1659
 1581SOL    HW1 5367   1.317   2.930   2.295 -1.6758 -2.3566  1.1724
 1581SOL    HW2 5368   1.419   2.889   2.416 -0.3143 -1.8148  0.2486
 1582SOL     OW 5369   2.770   2.960   3.367 -0.2188 -0.0756 -0.2005
 1582SOL    HW1 5370   2.841   2.899   3.402 -0.3212 -1.3011 -1.9509
 1582SOL    HW2 5371   2.812   3.036   3.317 -0.0826  1.5202  2.1874
 1583SOL     OW 5372   3.991   3.415   4.225 -0.1778  0.1031 -0.2814
 1583SOL    HW1 5373   4.025   3.438   4.317 -0.1844  0.0992 -0.2779
 1583SOL    HW2 5374   4.045   3.463   4.156  0.9674 -1.2450 -0.3664
 1584SOL     OW 5375   4.883   1.297   2.826  0.4899  0.0496  0.2378
 1584SOL    HW1 5376   4.970   1.337   2.795 -0.2712  0.2704 -1.7377
 1584SOL    HW2 5377   4.882   1.293   2.926  2.3182  1.0539  0.3350
 1585SOL     OW 5378   3.655   2.983   0.513 -0.0562 -0.3267  0.1107
 1585SOL    HW1 5379   3.603   3.030   0.584  0.2488  0.9717 -0.5000
 1585SOL    HW2 5380   3.712   3.049   0.464  0.5943 -1.3882 -0.5948
 1586SOL     OW 5381   2.871   0.391   4.639 -0.3580  0.5082 -0.1080
 1586SOL    HW1 5382   2.834   0.298   4.639  0.0040  0.3592  0.4363
 1586SOL    HW2 5383   2.832   0.443   4.715  0.2654  0.4649  0.2431
 1587SOL     OW 5384   2.361   1.370   2.214 -0.4122 -0.0165 -0.3641
 1587SOL    HW1 5385   2.443   1.312   2.214  2.1220  3.3127  0.2188
 1587SOL    HW2 5386   2.296   1.335   2.146  0.9469 -3.3478 -0.1753
 1588SOL     OW 5387   3.613   4.296   1.104 -0.6859  0.0939 -0.2364
 1588SOL    HW1 5388   3.622   4.272   1.201 -2.8369  0.3863  0.0925
 1588SOL    HW2 5389   3.544   4.237   1.062  0.8663 -0.6644 -1.8792
 1589SOL     OW 5390   3.213   0.246   1.863  0.2439 -0.4046 -0.4115
 1589SOL    HW1 5391   3.162   0.319   1.820 -0.8502 -0.2101  1.1381
 1589SOL    HW2 5392   3.271   0.201   1.795 -0.7557  0.4268 -1.8575
 1590SOL     OW 5393   0.473   0.166   1.946  0.3563  0.1228 -0.1031
 1590SOL    HW1 5394   0.444   0.174   1.851 -1.8694  3.7283  0.6686
 1590SOL    HW2 5395   0.417   0.096   1.992 -1.3779  1.1250 -0.6038
 1591SOL     OW 5396   3.116   0.591   4.690 -0.0839  0.2765  0.2044
 1591SOL    HW1 5397   3.192   0.654   4.698  0.4591 -0.2526 -0.6305
 1591SOL    HW2 5398   3.093   0.577   4.593  0.3643 -1.4313  0.3051
 1592SOL     OW 5399   4.208   1.963   4.577  0.2703 -0.1007  0.7886
 1592SOL    HW1 5400   4.272   2.039   4.590  0.1901 -0.0073  0.6335
 1592SOL    HW2 5401   4.195   1.916   4.665  0.3826  0.0138  0.8678
 1593SOL     OW 5402   2.721   3.835   2.529 -0.4093 -0.2103  0.3852
 1593SOL    HW1 5403   2.714   3.906   2.600  0.9344  0.6610 -0.3000
 1593SOL    HW2 5404   2.675   3.867   2.446  1.0767  0.3616 -0.2611
 1594SOL     OW 5405   2.087   1.574   2.405 -0.5811  0.3065 -0.2861
 1594SOL    HW1 5406   2.172   1.525   2.421 -1.0340 -0.1739  0.8100
 1594SOL    HW2 5407   2.107   1.670   2.385  0.2080  0.3495  0.6159
 1595SOL     OW 5408   2.818   2.696   3.838 -0.0440 -0.5285  0.0537
 1595SOL    HW1 5409   2.857   2.758   3.770  1.0981 -0.8650  0.3733
 1595SOL    HW2 5410   2.892   2.656   3.893 -0.8957 -0.7371  1.0841
 1596SOL     OW 5411   2.981   2.153   3.410 -0.0197  0.0680 -0.1690
 1596SOL    HW1 5412   2.967   2.083   3.480  0.7834  0.1133  0.0508
 1596SOL    HW2 5413   3.015   2.236   3.452 -0.8190  0.5531 -0.4511
 1597SOL     OW 5414   4.905   1.578   1.922 -0.3135 -0.2228  0.3946
 1597SOL    HW1 5415   4.822   1.603   1.873  0.1098  0.0042 -0.2245
 1597SOL    HW2 5416   4.962   1.659   1.935  0.9968 -0.7847 -1.4786
 1598SOL     OW 5417   0.383   0.066   4.645 -0.0390 -0.4733  0.2564
 1598SOL    HW1 5418   0.355   0.031   4.734  0.3784 -0.5436  0.3580
 1598SOL    HW2 5419   0.314   0.041   4.577  0.1384 -1.3001  0.3674
 1599SOL     OW 5420   1.510   1.273   0.739  0.4951 -0.2722 -0.2908
 1599SOL    HW1 5421   1.553   1.188   0.709  0.2511 -0.4855 -0.0346
 1599SOL    HW2 5422   1.579   1.345   0.743  0.6535 -0.3926 -0.7572
 1600SOL     OW 5423   2.893   2.224   0.924 -0.8508 -0.0501  0.0070
 1600SOL    HW1 5424   2.794   2.232   0.908 -1.2881 -0.5418  2.0744
 1600SOL    HW2 5425   2.927   2.141   0.881 -1.5947 -0.4989  0.2649
 1601SOL     OW 5426   4.455   0.621   4.004  0.2902  0.0328  0.2216
 1601SOL    HW1 5427   4.462   0.537   4.059  1.4824  0.1509  0.2781
 1601SOL    HW2 5428   4.365   0.662   4.018  0.8234  0.5314  2.8241
 1602SOL     OW 5429   2.508   2.329   3.598 -0.3083 -0.5327 -0.1373
 1602SOL    HW1 5430   2.570   2.383   3.655 -1.1635  0.2347  0.0916
 1602SOL    HW2 5431   2.428   2.385   3.573 -0.9457 -1.5164 -0.3571
 1603SOL     OW 5432   2.149   1.980   0.269  1.0761  0.2806 -0.2356
 1603SOL    HW1 5433   2.210   1.914   0.225  0.1894  0.1079 -1.2366
 1603SOL    HW2 5434   2.137   1.956   0.365  0.0975 -1.5257 -0.7790
 1604SOL     OW 5435   1.641   2.049   1.212 -0.2221 -0.0361  0.4815
 1604SOL    HW1 5436   1.650   2.024   1.116 -1.2640 -1.5018  0.7338
 1604SOL    HW2 5437   1.567   1.996   1.254 -0.1966  1.0151  1.9482
 1605SOL     OW 5438   2.419   2.221   2.516  0.3547  0.0938 -0.7452
 1605SOL    HW1 5439   2.491   2.155   2.536 -2.0920 -2.1265  1.3226
 1605SOL    HW2 5440   2.450   2.313   2.543  2.6236 -0.6342 -0.6436
 1606SOL     OW 5441   2.438   2.460   0.639  0.1156  0.8010  0.2199
 1606SOL    HW1 5442   2.405   2.440   0.547  1.5278  1.8813 -0.5642
 1606SOL    HW2 5443   2.362   2.489   0.697 -0.5942  1.4676 -1.0131
 1607SOL     OW 5444   3.390   0.380   0.649  0.4350  0.7091 -0.0109
 1607SOL    HW1 5445   3.351   0.449   0.710  0.4399  0.6484  0.0609
 1607SOL    HW2 5446   3.317   0.329   0.605  0.4021 -0.4879  1.3329
 1608SOL     OW 5447   1.657   4.562   0.355 -0.1493  0.0085  0.4031
 1608SOL    HW1 5448   1.709   4.612   0.286  1.0511 -0.6751  0.7922
 1608SOL    HW2 5449   1.712   4.487   0.391 -1.3568 -0.6468  0.9451
 1609SOL     OW 5450   0.722   3.501   3.638  0.4106  0.0966 -0.1630
 1609SOL    HW1 5451   0.782   3.421   3.629 -1.0767 -1.1906  0.7701
 1609SOL    HW2 5452   0.681   3.501   3.729 -0.1530  1.5721 -0.3959
 1610SOL     OW 5453   1.290   0.029   4.688 -0.1775 -0.4353  0.3283
 1610SOL    HW1 5454   1.375   0.032   4.635  0.8396  2.7761  1.8784
 1610SOL    HW2 5455   1.217   0.074   4.637  0.2834  0.8591  0.7683
 1611SOL     OW 5456   2.278   2.421   1.651  0.1540 -0.0549 -0.1749
 1611SOL    HW1 5457   2.319   2.493   1.706  0.1223 -0.4027  0.3089
 1611SOL    HW2 5458   2.272   2.451   1.556  0.2329  0.5373  0.0060
 1612SOL     OW 5459   3.978   1.511   2.441  0.0709  0.5506 -0.3480
 1612SOL    HW1 5460   3.975   1.603   2.480  1.4584  0.6575 -0.4348
 1612SOL    HW2 5461   4.028   1.513   2.354 -0.3627 -0.1944 -0.6283
 1613SOL     OW 5462   3.767   1.081   4.467 -0.0397 -0.1371 -0.4428
 1613SOL    HW1 5463   3.727   1.169   4.439  0.4776  0.2692  0.0671
 1613SOL    HW2 5464   3.856   1.069   4.423  1.0547  0.7764  1.3888
 1614SOL     OW 5465   0.914   0.632   1.818 -0.0146 -0.0668 -0.3338
 1614SOL    HW1 5466   0.899   0.658   1.913 -1.5013 -0.7028 -0.3685
 1614SOL    HW2 5467   0.997   0.676   1.784  1.6195 -1.2871  1.8116
 1615SOL     OW 5468   1.611   1.949   0.590 -0.1917 -0.2244 -0.2042
 1615SOL    HW1 5469   1.550   1.875   0.564 -1.1804  0.2239  0.7728
 1615SOL    HW2 5470   1.558   2.027   0.624  0.8716  0.5583 -0.2745
 1616SOL     OW 5471   4.407   0.091   1.411  0.3107  0.2725  0.4326
 1616SOL    HW1 5472   4.368   0.085   1.319  1.5638 -0.7508 -0.0695
 1616SOL    HW2 5473   4.345   0.045   1.476  1.0265 -2.2028 -0.5022
 1617SOL     OW 5474   2.175   3.695   3.102  0.1823 -0.0085 -0.0561
 1617SOL    HW1 5475   2.265   3.735   3.119 -1.2814  2.4986  2.8084
 1617SOL    HW2 5476   2.162   3.617   3.164  0.3478 -0.3183 -0.4107
 1618SOL     OW 5477   4.742   4.756   2.996 -0.0588 -0.2317  0.4736
 1618SOL    HW1 5478   4.682   4.822   3.042 -0.6520  0.1093 -0.7394
 1618SOL    HW2 5479   4.837   4.784   3.007 -0.2384  0.2398  0.8698
 1619SOL     OW 5480   0.168   4.310   0.582  0.0332  0.2262  0.1156
 1619SOL    HW1 5481   0.207   4.347   0.666 -1.4830  0.5664  0.6962
 1619SOL    HW2 5482   0.224   4.232   0.552  1.9592  1.5419  0.1027
 1620SOL     OW 5483   2.493   4.367   1.769 -0.6436  0.0662 -0.1137
 1620SOL    HW1 5484   2.580   4.369   1.718 -1.2214  1.9336 -1.1181
 1620SOL    HW2 5485   2.476   4.274   1.801  1.0839 -0.6158 -1.0148
 1621SOL     OW 5486   0.801   0.460   1.581 -0.7381 -0.0998 -0.4713
 1621SOL    HW1 5487   0.789   0.493   1.674 -0.3690 -1.1201 -0.0396
 1621SOL    HW2 5488   0.895   0.426   1.570 -0.4229  1.0419 -1.5595
 1622SOL     OW 5489   2.708   0.891   4.448  0.2181  0.2055  0.5127
 1622SOL    HW1 5490   2.787   0.894   4.386  1.0304 -0.3329  1.4911
 1622SOL    HW2 5491   2.691   0.984   4.483  0.8258  0.2250  0.7788
 1623SOL     OW 5492   1.164   4.398   0.839  0.5790 -0.3080  0.6435
 1623SOL    HW1 5493   1.121   4.329   0.781  0.3517 -0.7237  1.2988
 1623SOL    HW2 5494   1.204   4.469   0.782  1.3480 -1.2931 -0.0790
 1624SOL     OW 5495   4.010   2.826   4.559  0.5298  0.1979  0.0937
 1624SOL    HW1 5496   3.995   2.786   4.468 -0.2397 -0.1916  0.3894
 1624SOL    HW2 5497   4.101   2.868   4.561  0.7876 -0.2879 -0.6762
 1625SOL     OW 5498   4.243   0.572   4.499  0.2189  0.1013  0.9013
 1625SOL    HW1 5499   4.186   0.501   4.541  0.3295  0.9290  2.5478
 1625SOL    HW2 5500   4.298   0.616   4.570  0.2922  1.7088 -0.1075
 1626SOL     OW 5501   1.546   0.826   1.628 -0.1990  0.0487  0.3235
 1626SOL    HW1 5502   1.451   0.820   1.598 -0.6084 -0.4242  1.6345
 1626SOL    HW2 5503   1.595   0.743   1.602 -0.2850  0.0648  0.1100
 1627SOL     OW 5504   4.468   2.258   4.314 -0.1109 -0.3382  0.2660
 1627SOL    HW1 5505   4.403   2.198   4.267 -2.3061  1.4545  0.8321
 1627SOL    HW2 5506   4.561   2.237   4.284 -0.9276 -2.9279 -0.6766
 1628SOL     OW 5507   1.254   1.080   1.003  0.3403  0.5210  0.1916
 1628SOL    HW1 5508   1.192   1.028   0.944  2.4693 -2.3234  0.2765
 1628SOL    HW2 5509   1.266   1.172   0.965 -0.9265 -0.1114 -1.9283
 1629SOL     OW 5510   0.026   2.069   2.316 -0.0117 -0.3715 -0.1524
 1629SOL    HW1 5511   0.075   2.149   2.350  0.0620 -0.2009 -0.6528
 1629SOL    HW2 5512   0.010   2.079   2.218  0.8004 -1.3908 -0.4046
 1630SOL     OW 5513   0.647   3.104   3.181  0.1022  0.3095  0.3849
 1630SOL    HW1 5514   0.713   3.033   3.156  0.5988  0.9826 -0.2488
 1630SOL    HW2 5515   0.653   3.122   3.279  0.8694  0.3690  0.3304
 1631SOL     OW 5516   2.687   2.669   1.299  0.3894  0.8277  0.0978
 1631SOL    HW1 5517   2.750   2.627   1.233 -0.3440  0.3176 -0.3025
 1631SOL    HW2 5518   2.602   2.694   1.251 -0.3930 -0.1021  0.9517
 1632SOL     OW 5519   4.473   0.024   3.686 -0.4401  0.2529 -0.4998
 1632SOL    HW1 5520   4.457   0.070   3.598 -0.2953 -0.7841 -1.0827
 1632SOL    HW2 5521   4.444  -0.071   3.679 -0.5152  0.1849  0.6200
 1633SOL     OW 5522   4.063   3.226   3.716 -0.0917 -0.3231 -0.4638
 1633SOL    HW1 5523   4.109   3.247   3.803 -2.0227 -0.6683  0.6982
 1633SOL    HW2 5524   4.085   3.298   3.649  2.0437 -0.4496  0.0197
 1634SOL     OW 5525   0.674   0.665   3.416 -0.4547  0.5723 -0.3170
 1634SOL    HW1 5526   0.674   0.638   3.512  1.2496  1.0445 -0.1477
 1634SOL    HW2 5527   0.727   0.749   3.405  0.6090 -0.2543 -1.8633
 1635SOL     OW 5528   3.891   4.000   2.492  0.3726  0.1212 -0.0881
 1635SOL    HW1 5529   3.952   4.052   2.433  1.2153  0.3450  0.9522
 1635SOL    HW2 5530   3.836   4.063   2.548  0.8642 -0.0848  0.6429
 1636SOL     OW 5531   4.619   3.627   1.512  0.5852  0.5762  0.0632
 1636SOL    HW1 5532   4.640   3.624   1.414 -1.4877  1.0435 -0.4408
 1636SOL    HW2 5533   4.569   3.544   1.538  0.5553  0.7495  0.5736
 1637SOL     OW 5534   3.489   4.306   3.243  0.0446  0.1815 -0.1140
 1637SOL    HW1 5535   3.499   4.207   3.258 -0.9501  0.2366  1.0989
 1637SOL    HW2 5536   3.402   4.323   3.196 -0.5912  0.5726  1.1646
 1638SOL     OW 5537   3.895   3.445   0.441  0.0839 -0.2566  0.2507
 1638SOL    HW1 5538   3.816   3.507   0.438  0.3511  0.1746  1.6615
 1638SOL    HW2 5539   3.957   3.467   0.366 -0.3981  0.4046  0.0359
 1639SOL     OW 5540   1.443   2.817   0.776  0.4467 -0.3071 -0.2123
 1639SOL    HW1 5541   1.533   2.849   0.805  0.2330  0.3779 -0.2781
 1639SOL    HW2 5542   1.381   2.815   0.854 -0.1296  1.5430 -0.5742
 1640SOL     OW 5543   3.215   3.887   0.605 -0.0792 -0.6879  0.9720
 1640SOL    HW1 5544   3.271   3.810   0.575 -0.1923 -0.6952  0.7812
 1640SOL    HW2 5545   3.266   3.972   0.591 -0.3644 -0.6366  0.1831
 1641SOL     OW 5546   0.588   1.257   4.335 -0.0235 -0.0842 -0.0940
 1641SOL    HW1 5547   0.591   1.356   4.349  0.7390 -0.1853  0.5326
 1641SOL    HW2 5548   0.582   1.238   4.237 -0.3075  0.5797 -0.2163
 1642SOL     OW 5549   3.424   4.416   4.241 -0.4349  0.2064  0.1217
 1642SOL    HW1 5550   3.403   4.335   4.186  0.2205 -0.4089  0.7556
 1642SOL    HW2 5551   3.344   4.477   4.242 -1.1313 -0.6795  0.0658
 1643SOL     OW 5552   0.016   3.545   3.838  0.2748  0.2248 -0.1581
 1643SOL    HW1 5553   0.005   3.627   3.893 -1.7326 -0.9587  1.3462
 1643SOL    HW2 5554   0.101   3.498   3.864 -0.1145  0.2416  1.2221
 1644SOL     OW 5555   0.902   1.076   0.461 -0.4509 -0.6419 -0.0916
 1644SOL    HW1 5556   0.934   1.171   0.458 -0.1225 -0.6781  1.4353
 1644SOL    HW2 5557   0.908   1.036   0.370  1.4027  0.1660 -0.3726
 1645SOL     OW 5558   1.550   4.529   4.400  0.4511 -0.1937 -0.0816
 1645SOL    HW1 5559   1.492   4.464   4.450  0.7728  0.4464  1.1842
 1645SOL    HW2 5560   1.494   4.584   4.339 -0.0268 -0.6964 -0.1062
 1646SOL     OW 5561   3.196   2.597   0.021  0.3910  0.4367 -0.1681
 1646SOL    HW1 5562   3.119   2.552  -0.024  0.5661  0.6915 -0.7271
 1646SOL    HW2 5563   3.160   2.665   0.085  0.1374  1.5683 -1.4634
 1647SOL     OW 5564   4.603   4.636   3.983  0.1707  0.3067  0.4428
 1647SOL    HW1 5565   4.652   4.715   4.020 -0.8905  0.4918  1.5504
 1647SOL    HW2 5566   4.506   4.659   3.973 -0.2522 -0.9901  1.2804
 1648SOL     OW 5567   2.801   0.762   2.930  0.7545  0.0128 -0.0539
 1648SOL    HW1 5568   2.808   0.666   2.904 -0.6853  0.0499 -0.6799
 1648SOL    HW2 5569   2.798   0.770   3.030  1.5975 -0.5200  0.0208
 1649SOL     OW 5570   0.014   4.180   1.918 -0.1860  0.0242 -0.1933
 1649SOL    HW1 5571  -0.072   4.224   1.891 -0.4399 -0.1882  0.2587
 1649SOL    HW2 5572  -0.000   4.082   1.931  0.0926  0.0059 -0.0014
 1650SOL     OW 5573   0.084   0.173   1.240 -0.6584  0.2169  0.2659
 1650SOL    HW1 5574   0.102   0.198   1.335  0.5223 -0.0592  0.1191
 1650SOL    HW2 5575  -0.011   0.195   1.218 -0.9848  0.1594  1.5438
 1651SOL     OW 5576   0.387   2.852   1.390 -0.1668  0.3888  0.3530
 1651SOL    HW1 5577   0.486   2.851   1.407 -0.0281  1.6456 -0.2542
 1651SOL    HW2 5578   0.362   2.770   1.339  0.2893 -0.7113  1.8279
 1652SOL     OW 5579   2.023   0.522   0.641 -0.1350 -0.2505  0.2669
 1652SOL    HW1 5580   1.926   0.521   0.616 -0.1653 -1.7771  0.3042
 1652SOL    HW2 5581   2.048   0.433   0.679  1.7247 -0.5920 -1.5596
 1653SOL     OW 5582   1.221   4.729   4.860  0.4400 -0.3522 -0.0072
 1653SOL    HW1 5583   1.237   4.807   4.799 -1.3782 -0.5844 -0.8514
 1653SOL    HW2 5584   1.244   4.644   4.813 -2.7215 -0.6823 -1.1969
 1654SOL     OW 5585   1.869   3.401   4.353  0.2791 -0.2373  0.1153
 1654SOL    HW1 5586   1.904   3.458   4.278  0.3602 -0.0715  0.2781
 1654SOL    HW2 5587   1.912   3.311   4.350 -0.3754 -0.5378 -0.5732
 1655SOL     OW 5588   0.979   4.324   4.309 -0.3418 -0.3000  0.3242
 1655SOL    HW1 5589   1.067   4.282   4.331 -0.3218 -1.0620 -1.1331
 1655SOL    HW2 5590   0.921   4.258   4.261 -1.2361  0.5948  0.1361
 1656SOL     OW 5591   2.103   1.018   0.264  0.2498 -0.5465 -0.2338
 1656SOL    HW1 5592   2.052   1.101   0.284  0.9944  0.2898 -1.6178
 1656SOL    HW2 5593   2.057   0.967   0.191 -0.7765 -1.9497  1.3097
 1657SOL     OW 5594   0.718   1.357   3.196  0.0887 -0.4866 -0.3379
 1657SOL    HW1 5595   0.773   1.350   3.113  0.4485 -2.1964  0.0147
 1657SOL    HW2 5596   0.735   1.446   3.239  0.6964 -0.0003 -1.5127
 1658SOL     OW 5597   1.031   2.989   1.095  0.0662  0.5070 -0.0599
 1658SOL    HW1 5598   1.026   3.087   1.114 -1.8592  0.3870  0.2255
 1658SOL    HW2 5599   1.032   2.975   0.996  1.2675  0.8162 -0.1125
 1659SOL     OW 5600   2.096   0.274   0.785 -0.3957 -0.5877  0.4462
 1659SOL    HW1 5601   2.191   0.250   0.764 -1.0419 -1.9103 -1.0826
 1659SOL    HW2 5602   2.051   0.197   0.831 -0.8934 -0.1520  0.7027
 1660SOL     OW 5603   0.654   3.955   4.750 -0.1601 -0.4052 -0.0444
 1660SOL    HW1 5604   0.573   3.993   4.705  1.7041  0.9746 -2.4596
 1660SOL    HW2 5605   0.664   3.997   4.841 -1.9199 -0.3384  0.1459
 1661SOL     OW 5606   4.257   2.418   1.647 -0.5191  0.2483  0.1632
 1661SOL    HW1 5607   4.182   2.483   1.641 -0.7935 -0.1459 -0.8901
 1661SOL    HW2 5608   4.232   2.342   1.707 -1.7678 -0.8926 -1.7245
 1662SOL     OW 5609   2.805   3.545   3.282  0.2700 -0.1058  0.8182
 1662SOL    HW1 5610   2.744   3.469   3.258 -1.4432  1.3858  0.1427
 1662SOL    HW2 5611   2.823   3.599   3.200  1.8076  0.0173  1.2075
 1663SOL     OW 5612   4.565   0.354   3.990  0.1949 -0.2878 -0.0168
 1663SOL    HW1 5613   4.604   0.273   3.947 -0.7570 -0.8954  0.2477
 1663SOL    HW2 5614   4.487   0.329   4.047 -0.9768  0.9376 -0.9891
 1664SOL     OW 5615   2.880   0.013   4.259 -0.1340 -0.2161  0.1801
 1664SOL    HW1 5616   2.823  -0.026   4.185 -0.6056 -0.7717  0.8191
 1664SOL    HW2 5617   2.837   0.097   4.293 -0.2083 -0.2572  0.1894
 1665SOL     OW 5618   0.191   1.274   3.937 -0.3994 -0.0475  0.2066
 1665SOL    HW1 5619   0.121   1.299   4.005  0.0393 -0.8119  0.9487
 1665SOL    HW2 5620   0.280   1.266   3.981 -0.0319 -0.1796 -0.5343
 1666SOL     OW 5621   1.041   1.711   1.046  0.2185 -0.2201 -0.4311
 1666SOL    HW1 5622   1.053   1.801   1.003  1.7166 -0.3165 -0.2634
 1666SOL    HW2 5623   0.946   1.701   1.076  0.1529  1.5273  0.0434
 1667SOL     OW 5624   4.513   4.034   1.799  0.4015  0.0101 -0.1828
 1667SOL    HW1 5625   4.534   3.983   1.716 -1.5769  0.0234 -0.7333
 1667SOL    HW2 5626   4.432   3.995   1.843  0.4071  1.0540  0.8206
 1668SOL     OW 5627   2.525   2.936   2.254  0.1119  0.4451 -0.2039
 1668SOL    HW1 5628   2.575   2.858   2.216  0.0125  0.0554  0.4620
 1668SOL    HW2 5629   2.565   2.962   2.341 -3.6561 -2.9990  2.9625
 1669SOL     OW 5630   4.145   3.894   4.319 -0.4943 -0.0723 -0.0262
 1669SOL    HW1 5631   4.112   3.919   4.229  0.3590  2.2367  0.2331
 1669SOL    HW2 5632   4.172   3.797   4.320  1.5227  0.3473 -2.8989
 1670SOL     OW 5633   3.815   1.974   0.615 -0.3309  0.4677  0.1691
 1670SOL    HW1 5634   3.753   1.944   0.687 -0.3632 -1.4468 -0.5741
 1670SOL    HW2 5635   3.770   2.044   0.559 -1.6762 -0.5247 -0.0535
 1671SOL     OW 5636   2.682   4.526   2.670  0.3264 -0.1860  0.0586
 1671SOL    HW1 5637   2.598   4.545   2.620  0.1641  0.5038  0.5769
 1671SOL    HW2 5638   2.661   4.486   2.759  0.4115  1.5681  0.9309
 1672SOL     OW 5639   3.891   0.532   1.599 -0.1032  0.1976 -0.4304
 1672SOL    HW1 5640   3.818   0.467   1.617  0.0075 -0.1095 -1.0671
 1672SOL    HW2 5641   3.855   0.607   1.542  0.3852 -0.6668 -1.9435
 1673SOL     OW 5642   2.789   2.720   2.974  0.0130 -0.0056 -0.0024
 1673SOL    HW1 5643   2.861   2.768   2.922 -0.2168  0.5743  0.2063
 1673SOL    HW2 5644   2.800   2.622   2.961 -0.7961  0.1294 -2.1870
 1674SOL     OW 5645   2.737   4.571   4.199 -0.1484 -0.4252 -0.3453
 1674SOL    HW1 5646   2.716   4.651   4.141 -0.4620 -0.4115 -0.2176
 1674SOL    HW2 5647   2.702   4.488   4.155  0.9742 -0.6080 -0.9091
 1675SOL     OW 5648   4.188   4.549   3.307  1.0846  0.4292 -0.2602
 1675SOL    HW1 5649   4.217   4.475   3.368  1.5398  2.2718  1.8952
 1675SOL    HW2 5650   4.261   4.618   3.302 -0.6816  2.4873  0.7883
 1676SOL     OW 5651   1.644   4.495   1.421 -0.4274 -1.0111  0.2706
 1676SOL    HW1 5652   1.546   4.517   1.415 -0.0792  0.5103 -0.3949
 1676SOL    HW2 5653   1.688   4.555   1.488  0.4389 -0.0488 -1.0904
 1677SOL     OW 5654   1.762   3.475   0.384 -0.2529  0.1555 -0.3305
 1677SOL    HW1 5655   1.726   3.381   0.387  1.0605 -0.4553 -2.1433
 1677SOL    HW2 5656   1.858   3.475   0.411 -0.2577  1.0076 -0.2836
 1678SOL     OW 5657   1.900   0.048   1.443 -0.3556 -0.6339  0.0228
 1678SOL    HW1 5658   1.928   0.076   1.351 -0.7474  0.6787  0.2856
 1678SOL    HW2 5659   1.805   0.017   1.440  0.0972 -2.0466 -0.2799
 1679SOL     OW 5660   3.222   2.064   3.269  0.5528 -0.3223 -0.0373
 1679SOL    HW1 5661   3.220   1.996   3.196 -0.5056 -0.7412  0.3522
 1679SOL    HW2 5662   3.132   2.068   3.312  0.3079  1.9564 -0.6297
 1680SOL     OW 5663   2.374   1.258   4.690  0.0874  0.3762  0.9839
 1680SOL    HW1 5664   2.282   1.239   4.724  0.0479  0.3487  0.8638
 1680SOL    HW2 5665   2.418   1.326   4.748  0.9251 -1.4159  2.5116
 1681SOL     OW 5666   2.900   3.476   4.663 -0.4117 -0.1695  0.2330
 1681SOL    HW1 5667   2.825   3.512   4.607 -0.9741  0.1292  1.1560
 1681SOL    HW2 5668   2.987   3.516   4.633 -0.9203  1.3623  0.7170
 1682SOL     OW 5669   3.562   4.611   3.980  0.1343  0.1569  1.0467
 1682SOL    HW1 5670   3.570   4.551   4.059  2.1515 -0.9494  0.0790
 1682SOL    HW2 5671   3.653   4.630   3.943 -0.7127  1.0436 -0.7146
 1683SOL     OW 5672   0.919   3.988   2.916  0.3407  0.4343 -0.3384
 1683SOL    HW1 5673   0.853   3.959   2.986 -0.8869 -1.1570 -2.0649
 1683SOL    HW2 5674   0.929   4.088   2.919  0.2650  0.4226  2.0088
 1684SOL     OW 5675   0.987   1.314   0.472 -0.0172 -0.0147  0.3623
 1684SOL    HW1 5676   1.049   1.371   0.525  0.8785  0.3118 -0.9692
 1684SOL    HW2 5677   0.937   1.371   0.406  0.0093 -0.5971 -0.1750
 1685SOL     OW 5678   0.323   2.899   2.195 -0.2172  0.4437  0.1116
 1685SOL    HW1 5679   0.416   2.927   2.220 -0.1247 -0.8531  1.3854
 1685SOL    HW2 5680   0.274   2.870   2.278 -0.5616 -2.2542 -0.9340
 1686SOL     OW 5681   0.918   1.854   2.174 -0.0151  0.3438  0.3494
 1686SOL    HW1 5682   0.915   1.802   2.259 -0.8509  0.5492  0.4485
 1686SOL    HW2 5683   0.900   1.794   2.097  1.8140 -0.0659  0.1961
 1687SOL     OW 5684   3.233   4.206   0.168  0.6231 -0.1641 -0.0955
 1687SOL    HW1 5685   3.216   4.107   0.171 -1.2124 -0.0126 -2.5083
 1687SOL    HW2 5686   3.169   4.252   0.230 -1.0409 -0.3328 -1.5838
 1688SOL     OW 5687   2.053   4.227   3.391 -0.4941 -0.3203 -0.2350
 1688SOL    HW1 5688   2.096   4.136   3.390 -0.0114 -0.0930 -0.2057
 1688SOL    HW2 5689   2.059   4.267   3.299  2.2162  1.0372  0.4464
 1689SOL     OW 5690   1.759   2.946   0.485  0.7260 -0.5169 -0.2473
 1689SOL    HW1 5691   1.683   2.949   0.420  0.2525 -1.4041  0.2419
 1689SOL    HW2 5692   1.769   2.852   0.520  1.5845 -0.2569  0.2364
 1690SOL     OW 5693   0.120   1.788   2.442 -0.0398  0.4714  1.3289
 1690SOL    HW1 5694   0.080   1.776   2.351  1.0946 -2.6202  1.1189
 1690SOL    HW2 5695   0.050   1.822   2.505 -1.6402 -0.0953 -0.0719
 1691SOL     OW 5696   4.610   1.506   3.247 -0.3242  0.8025 -0.2250
 1691SOL    HW1 5697   4.679   1.571   3.215  0.3383  0.3360  0.2440
 1691SOL    HW2 5698   4.540   1.495   3.176  2.7377 -2.6347 -3.1079
 1692SOL     OW 5699   0.728   4.855   2.316 -0.5340  0.1320  0.2597
 1692SOL    HW1 5700   0.632   4.827   2.312 -0.5958  0.4678 -0.8381
 1692SOL    HW2 5701   0.759   4.880   2.224  1.5684 -3.2255 -0.1185
 1693SOL     OW 5702   1.820   1.323   4.072  1.1575  0.6555  0.4204
 1693SOL    HW1 5703   1.783   1.377   4.147  1.3351  0.8872  0.3409
 1693SOL    HW2 5704   1.844   1.383   3.995 -1.1827  0.2083 -0.7415
 1694SOL     OW 5705   4.441   1.838   2.693 -0.1017  0.0357 -0.4943
 1694SOL    HW1 5706   4.385   1.854   2.774 -0.7173  1.5726 -1.1856
 1694SOL    HW2 5707   4.382   1.814   2.616  0.4731 -1.3983 -0.5183
 1695SOL     OW 5708   3.140   0.284   0.638 -0.0420 -0.3989 -0.3947
 1695SOL    HW1 5709   3.044   0.274   0.664 -0.3919 -1.6650 -1.9566
 1695SOL    HW2 5710   3.181   0.193   0.628  1.4489  0.1243  0.5906
 1696SOL     OW 5711   3.699   0.366   1.131  0.6452 -0.2063  0.6118
 1696SOL    HW1 5712   3.692   0.322   1.221  1.0043 -1.2102  0.1729
 1696SOL    HW2 5713   3.629   0.328   1.070  1.2861 -0.5620  0.0751
 1697SOL     OW 5714   1.689   2.372   0.737 -0.1475  0.6321  0.7300
 1697SOL    HW1 5715   1.733   2.282   0.739 -1.3260  0.0479  1.2076
 1697SOL    HW2 5716   1.705   2.415   0.648 -1.1529 -0.8794 -0.2277
 1698SOL     OW 5717   4.382   2.311   2.615  0.5455  0.0662  0.0145
 1698SOL    HW1 5718   4.429   2.231   2.652  1.5946  0.3118 -0.7494
 1698SOL    HW2 5719   4.362   2.375   2.690  1.9221  0.1992  0.2921
 1699SOL     OW 5720   1.286   2.461   1.790  0.7778 -0.3122  0.5539
 1699SOL    HW1 5721   1.329   2.434   1.877  0.5937 -2.7532 -0.0486
 1699SOL    HW2 5722   1.354   2.454   1.716  0.8529  1.4653  0.4266
 1700SOL     OW 5723   4.033   4.740   2.641  0.1819  0.2813 -0.0664
 1700SOL    HW1 5724   3.984   4.772   2.559  0.0668 -1.5269 -0.7339
 1700SOL    HW2 5725   3.969   4.736   2.718 -0.2399 -0.0874 -0.4292
 1701SOL     OW 5726   0.973   3.347   1.966 -0.5035  0.2459 -0.0967
 1701SOL    HW1 5727   1.066   3.334   2.001 -1.0839  0.2742  1.5166
 1701SOL    HW2 5728   0.975   3.345   1.866  1.4160  1.5812 -0.1325
 1702SOL     OW 5729   2.783   1.234   1.166  0.2104  0.2887  0.3104
 1702SOL    HW1 5730   2.790   1.135   1.151  1.1058  0.1208  1.6396
 1702SOL    HW2 5731   2.844   1.261   1.241 -1.0591  1.6289  0.9205
 1703SOL     OW 5732   1.803   2.858   2.847 -0.0340  0.5241 -0.2032
 1703SOL    HW1 5733   1.892   2.823   2.875 -0.4491  0.9951  1.8565
 1703SOL    HW2 5734   1.747   2.783   2.813  1.1975  0.2667 -1.8477
 1704SOL     OW 5735   2.318   1.052   0.048 -0.2630 -0.2188  0.1535
 1704SOL    HW1 5736   2.333   1.150   0.034  0.6760 -0.2211  1.0870
 1704SOL    HW2 5737   2.277   1.037   0.138 -1.5731 -0.6047 -0.4750
 1705SOL     OW 5738   3.628   3.518   1.151  0.3845 -0.4083  0.0981
 1705SOL    HW1 5739   3.620   3.617   1.162  0.1428 -0.4243  0.0787
 1705SOL    HW2 5740   3.675   3.498   1.066 -0.4794 -0.3172 -0.4199
 1706SOL     OW 5741   2.075   3.727   1.447  0.1415 -0.3711 -0.2777
 1706SOL    HW1 5742   2.147   3.696   1.385 -0.4346 -3.1574  0.2895
 1706SOL    HW2 5743   2.116   3.772   1.526  1.2591 -1.5731 -0.1407
 1707SOL     OW 5744   1.773   3.626   1.829  0.0512  0.2400  0.1830
 1707SOL    HW1 5745   1.718   3.585   1.902  0.4191  0.6609  0.7001
 1707SOL    HW2 5746   1.723   3.619   1.743 -1.0097  0.9933  0.7117
 1708SOL     OW 5747   0.786   4.699   0.415  0.2562  0.2644  0.3817
 1708SOL    HW1 5748   0.835   4.693   0.503  2.3762  1.9800 -0.5772
 1708SOL    HW2 5749   0.812   4.784   0.369 -1.3963 -0.2341 -1.5923
 1709SOL     OW 5750   2.396   4.889   1.394  0.8624 -0.3181  0.6633
 1709SOL    HW1 5751   2.343   4.949   1.454 -0.3640 -3.0626  2.5032
 1709SOL    HW2 5752   2.350   4.801   1.385  2.0613 -0.7493 -2.7575
 1710SOL     OW 5753   2.087   2.645   4.039  0.3042  0.3871  0.9215
 1710SOL    HW1 5754   2.147   2.616   3.964 -0.5231 -4.7056  1.8822
 1710SOL    HW2 5755   2.004   2.685   4.001  0.5912 -0.5708 -0.8413
 1711SOL     OW 5756   1.389   3.625   3.523  0.2024 -0.2731  0.1769
 1711SOL    HW1 5757   1.299   3.589   3.548  0.0664  0.0010  0.0855
 1711SOL    HW2 5758   1.423   3.683   3.597  0.8353 -1.3216  0.7335
 1712SOL     OW 5759   4.364   4.396   2.058 -0.2210 -0.9110 -0.0800
 1712SOL    HW1 5760   4.365   4.463   1.983  0.1274 -0.0574  0.6661
 1712SOL    HW2 5761   4.280   4.341   2.052 -1.0426  0.2927 -0.1222
 1713SOL     OW 5762   3.638   3.691   2.305  0.2394  0.2570 -1.0288
 1713SOL    HW1 5763   3.538   3.689   2.302  0.2526 -1.2151 -1.3227
 1713SOL    HW2 5764   3.670   3.667   2.396  0.3388  1.9044 -0.5961
 1714SOL     OW 5765   1.447   0.406   4.527 -0.6608 -0.0321 -0.1004
 1714SOL    HW1 5766   1.441   0.505   4.542  2.8319  0.6256 -1.7378
 1714SOL    HW2 5767   1.472   0.389   4.431  0.2557 -2.3742  0.4774
 1715SOL     OW 5768   2.224   2.893   1.334 -0.2575  0.3965 -0.3840
 1715SOL    HW1 5769   2.199   2.986   1.306 -1.6197 -0.4624 -2.2458
 1715SOL    HW2 5770   2.148   2.852   1.385 -0.2545 -0.1721 -0.8261
 1716SOL     OW 5771   3.084   3.331   3.624  0.1371  0.3105  0.0294
 1716SOL    HW1 5772   3.077   3.362   3.719 -0.0942 -2.4480  1.0225
 1716SOL    HW2 5773   3.171   3.284   3.611 -0.0557  0.2123 -0.9635
 1717SOL     OW 5774   1.105   2.323   3.399  0.1509  0.0502  0.6761
 1717SOL    HW1 5775   1.160   2.243   3.422 -1.4924 -2.1348 -2.2532
 1717SOL    HW2 5776   1.017   2.319   3.446  0.4862  0.8027  1.3998
 1718SOL     OW 5777   3.917   0.983   3.252  0.5367 -0.7287 -0.3200
 1718SOL    HW1 5778   3.828   0.963   3.209 -0.3714  0.3289  0.9935
 1718SOL    HW2 5779   3.936   0.913   3.321  1.0160 -1.2747 -0.9923
 1719SOL     OW 5780   4.723   1.558   2.399 -0.6396 -0.4015  0.4625
 1719SOL    HW1 5781   4.782   1.588   2.325 -2.9087  1.0450 -0.8717
 1719SOL    HW2 5782   4.754   1.469   2.433  0.9578 -0.7046 -1.6383
 1720SOL     OW 5783   3.777   2.269   0.019 -0.1234 -0.3469 -0.2371
 1720SOL    HW1 5784   3.828   2.280  -0.066 -0.8289  3.2345 -0.3608
 1720SOL    HW2 5785   3.792   2.177   0.056  1.8562 -1.3012 -3.0985
 1721SOL     OW 5786   4.626   0.897   3.667 -0.1112 -0.0299 -0.5099
 1721SOL    HW1 5787   4.667   0.806   3.670 -0.7091 -0.2782  1.1195
 1721SOL    HW2 5788   4.600   0.925   3.759 -1.9682  0.8674 -1.2666
 1722SOL     OW 5789   3.199   1.144   3.773  0.6640  0.0434 -0.2951
 1722SOL    HW1 5790   3.128   1.201   3.731 -0.4599 -1.9043 -1.1567
 1722SOL    HW2 5791   3.232   1.078   3.706 -0.4588 -2.5027  1.4969
 1723SOL     OW 5792   1.516   3.493   0.634 -0.0690 -0.5576 -0.2067
 1723SOL    HW1 5793   1.512   3.396   0.611 -2.3483 -0.1691 -1.7216
 1723SOL    HW2 5794   1.443   3.515   0.699  2.5707 -0.4369  2.9640
 1724SOL     OW 5795   0.009   2.935   1.478 -0.1485 -0.2806  0.0058
 1724SOL    HW1 5796   0.038   2.970   1.389  0.5546 -0.9792 -0.0509
 1724SOL    HW2 5797   0.086   2.892   1.523 -0.8248 -1.1275  0.3753
 1725SOL     OW 5798   3.276   4.420   0.697  0.1105 -0.5798  0.1640
 1725SOL    HW1 5799   3.316   4.439   0.608  0.3534  0.5299  0.4943
 1725SOL    HW2 5800   3.313   4.484   0.765 -1.9747  0.3173  0.5355
 1726SOL     OW 5801   3.356   4.764   3.506  0.1537  0.1669 -0.2120
 1726SOL    HW1 5802   3.386   4.745   3.600 -0.6944  1.5630  0.3743
 1726SOL    HW2 5803   3.293   4.692   3.476 -0.9827  0.6153  0.9874
 1727SOL     OW 5804   4.171   1.687   3.476 -0.2330 -0.1207  0.1372
 1727SOL    HW1 5805   4.176   1.644   3.566 -2.7000 -0.3354  0.2548
 1727SOL    HW2 5806   4.190   1.619   3.405  0.0177 -0.3639  0.4358
 1728SOL     OW 5807   2.516   1.101   1.502  0.0385  0.2617  0.5740
 1728SOL    HW1 5808   2.549   1.060   1.417  2.7962  2.5263  0.4396
 1728SOL    HW2 5809   2.416   1.107   1.499 -0.0259 -0.9530 -1.8890
 1729SOL     OW 5810   1.142   3.847   2.871 -0.4268  0.6624 -0.4022
 1729SOL    HW1 5811   1.172   3.797   2.952  0.4897  1.5105 -0.1897
 1729SOL    HW2 5812   1.061   3.901   2.893  0.8522  2.3043  0.5113
 1730SOL     OW 5813   1.264   3.711   0.640 -0.2582 -0.7011 -0.2648
 1730SOL    HW1 5814   1.310   3.796   0.617  1.5239 -1.7188 -0.6637
 1730SOL    HW2 5815   1.172   3.711   0.602 -0.1925  0.9168 -0.4851
 1731SOL     OW 5816   2.601   3.128   4.791  0.1422  0.4199  0.4869
 1731SOL    HW1 5817   2.669   3.079   4.737  0.4616  2.5648 -1.1857
 1731SOL    HW2 5818   2.629   3.127   4.887 -0.2135 -3.0967  0.6852
 1732SOL     OW 5819   1.087   0.785   2.452  0.2011 -0.5652  0.0186
 1732SOL    HW1 5820   1.009   0.754   2.507  1.1974 -0.8177  1.3451
 1732SOL    HW2 5821   1.172   0.766   2.501  1.0403  1.0807 -0.7162
 1733SOL     OW 5822   1.996   0.597   4.502  0.3968 -0.4810  0.2129
 1733SOL    HW1 5823   1.905   0.559   4.490  0.1142  0.2433  0.0045
 1733SOL    HW2 5824   2.004   0.637   4.593  0.0453  0.6375 -0.2235
 1734SOL     OW 5825   3.112   1.090   0.872 -0.2386 -0.5900  0.4939
 1734SOL    HW1 5826   3.206   1.112   0.897 -0.8111  1.6189  0.8696
 1734SOL    HW2 5827   3.052   1.104   0.950 -1.2541  0.9004 -0.4964
 1735SOL     OW 5828   0.276   1.870   4.242 -0.3468 -0.3719  0.2038
 1735SOL    HW1 5829   0.338   1.930   4.191 -0.4741  0.8234  1.4022
 1735SOL    HW2 5830   0.253   1.791   4.185 -0.5159  0.8974 -1.6062
 1736SOL     OW 5831   3.337   3.753   1.802 -0.3815 -0.0700 -0.0704
 1736SOL    HW1 5832   3.372   3.712   1.718 -2.5838 -0.2831 -0.9587
 1736SOL    HW2 5833   3.266   3.820   1.780 -0.1339  0.8060  1.5802
 1737SOL     OW 5834   3.481   2.974   2.480 -0.0609  0.3702  0.3524
 1737SOL    HW1 5835   3.521   2.917   2.552  2.9392 -0.3846 -1.7282
 1737SOL    HW2 5836   3.404   2.925   2.438 -0.7662  0.1167  1.8559
 1738SOL     OW 5837   2.129   3.408   4.849  0.9753  0.0434  0.0980
 1738SOL    HW1 5838   2.204   3.470   4.827  1.5088 -0.4153  0.6036
 1738SOL    HW2 5839   2.045   3.441   4.805  1.1845  1.2624  0.5859
 1739SOL     OW 5840   1.624   1.392   4.710  0.6925 -0.2345 -0.6084
 1739SOL    HW1 5841   1.607   1.304   4.754  1.5122 -0.2532 -0.2959
 1739SOL    HW2 5842   1.656   1.458   4.778  1.0454  0.0120 -1.0024
 1740SOL     OW 5843   1.465   0.395   0.240  0.0048 -0.3202  0.1325
 1740SOL    HW1 5844   1.563   0.404   0.223  0.0324  0.1734  0.5553
 1740SOL    HW2 5845   1.429   0.320   0.184  0.5527 -0.2791 -0.2870
 1741SOL     OW 5846   2.488   1.675   0.836  0.8477 -0.2396 -0.6666
 1741SOL    HW1 5847   2.561   1.607   0.828  0.7153 -0.7890  2.0510
 1741SOL    HW2 5848   2.528   1.766   0.847  1.0968 -0.3455 -0.6917
 1742SOL     OW 5849   3.741   4.552   3.630  0.2723 -0.1479  0.2733
 1742SOL    HW1 5850   3.693   4.640   3.621  0.1352  0.0270  2.2920
 1742SOL    HW2 5851   3.717   4.493   3.552 -1.2766  0.8458 -0.0540
 1743SOL     OW 5852   1.329   2.634   0.165 -0.0175  0.5226  0.5418
 1743SOL    HW1 5853   1.305   2.638   0.262 -2.4672 -2.1168  0.2236
 1743SOL    HW2 5854   1.252   2.593   0.114  0.7280  2.7886 -2.7160
 1744SOL     OW 5855   3.490   1.712   0.708  0.3445  0.2546 -0.6981
 1744SOL    HW1 5856   3.431   1.682   0.634  2.0915 -1.5753 -1.4378
 1744SOL    HW2 5857   3.569   1.652   0.714  1.4706  1.8017  1.1198
 1745SOL     OW 5858   0.524   0.154   3.261  0.2746 -0.1293 -0.6512
 1745SOL    HW1 5859   0.436   0.188   3.294  0.9325 -0.6369  1.9056
 1745SOL    HW2 5860   0.512   0.063   3.222 -0.0805 -1.2836  1.9470
 1746SOL     OW 5861   3.661   2.576   3.664 -0.7356  0.2745 -0.3322
 1746SOL    HW1 5862   3.696   2.554   3.573 -0.4793  0.3329 -0.2506
 1746SOL    HW2 5863   3.562   2.590   3.660 -0.5577  1.5607 -0.8559
 1747SOL     OW 5864   0.104   4.381   3.337  0.1415  0.5026  0.4942
 1747SOL    HW1 5865   0.203   4.386   3.323  0.2622 -1.4690  0.3913
 1747SOL    HW2 5866   0.060   4.458   3.291  1.6383  1.6859  0.9365
 1748SOL     OW 5867   0.737   0.452   0.253 -0.3045  0.1850 -0.4160
 1748SOL    HW1 5868   0.803   0.478   0.183 -1.0164  0.6508 -0.9309
 1748SOL    HW2 5869   0.743   0.515   0.330  0.7568 -0.5638  0.1406
 1749SOL     OW 5870   3.816   3.114   3.913  0.0842  0.0570 -0.4941
 1749SOL    HW1 5871   3.876   3.146   3.840  1.9998 -0.3861  0.8000
 1749SOL    HW2 5872   3.736   3.173   3.919  1.3958  1.9813 -0.9817
 1750SOL     OW 5873   4.199   1.069   3.363 -0.3549  0.3624  0.2950
 1750SOL    HW1 5874   4.270   1.038   3.300  0.2860  1.0387  0.6575
 1750SOL    HW2 5875   4.140   1.136   3.318 -0.2676  0.3949  0.2301
 1751SOL     OW 5876   3.536   3.269   0.316 -0.1445 -0.8101  0.1836
 1751SOL    HW1 5877   3.559   3.310   0.405  0.2175 -0.0352 -0.2519
 1751SOL    HW2 5878   3.446   3.226   0.321 -1.5355  1.8711  0.1095
 1752SOL     OW 5879   4.298   3.437   3.724 -0.1831 -0.4407  0.0368
 1752SOL    HW1 5880   4.313   3.385   3.640  0.3600  0.1185 -0.2152
 1752SOL    HW2 5881   4.357   3.402   3.796  0.4054  0.0075 -0.2163
 1753SOL     OW 5882   2.200   2.229   0.159  0.5160 -0.3782 -0.1360
 1753SOL    HW1 5883   2.136   2.246   0.084 -0.0141  1.2141  0.6421
 1753SOL    HW2 5884   2.164   2.156   0.218 -0.8515  0.7715  0.5287
 1754SOL     OW 5885   4.413   0.461   3.080 -0.5052  0.8123  0.1650
 1754SOL    HW1 5886   4.472   0.424   3.151 -1.8342  1.0074  1.4264
 1754SOL    HW2 5887   4.430   0.559   3.071 -0.8665  0.9403  0.7884
 1755SOL     OW 5888   3.006   0.100   2.849 -0.4195  0.4621  0.3708
 1755SOL    HW1 5889   3.034   0.042   2.926 -0.5888 -0.8933 -0.5617
 1755SOL    HW2 5890   2.910   0.083   2.828 -0.5906  1.4073  0.3470
 1756SOL     OW 5891   4.091   0.391   0.814 -0.4035  0.2196  0.1289
 1756SOL    HW1 5892   4.171   0.331   0.801 -1.2767 -0.6114 -1.8560
 1756SOL    HW2 5893   4.076   0.406   0.912  3.1256  1.7567  0.5842
 1757SOL     OW 5894   3.833   3.165   0.476  0.3821 -0.3589 -0.1204
 1757SOL    HW1 5895   3.818   3.263   0.477 -2.3272 -0.7125  0.0410
 1757SOL    HW2 5896   3.889   3.139   0.555  0.9091  0.9792 -0.0276
 1758SOL     OW 5897   4.706   1.203   3.246 -0.4254 -0.4457  0.0179
 1758SOL    HW1 5898   4.695   1.180   3.343  0.0903 -2.3237 -0.3400
 1758SOL    HW2 5899   4.663   1.292   3.228 -1.6000 -0.6288  1.7099
 1759SOL     OW 5900   1.228   1.787   3.746  0.1852  0.0044 -0.3128
 1759SOL    HW1 5901   1.169   1.767   3.823 -0.6570 -0.5023 -1.0765
 1759SOL    HW2 5902   1.251   1.885   3.746 -0.7316  0.2277 -0.0563
 1760SOL     OW 5903   0.233   4.360   0.257 -0.1804 -0.0815 -0.2934
 1760SOL    HW1 5904   0.282   4.274   0.268  0.6845  0.3675 -0.4867
 1760SOL    HW2 5905   0.137   4.342   0.235 -0.0675 -0.9848 -0.0675
 1761SOL     OW 5906   2.426   3.604   1.007 -0.0099  0.2254  0.2117
 1761SOL    HW1 5907   2.367   3.527   0.983  0.2869 -0.2923  1.0989
 1761SOL    HW2 5908   2.503   3.571   1.061  1.2565  0.8489 -1.1599
 1762SOL     OW 5909   0.829   1.531   0.316 -0.1672  0.0061  0.0426
 1762SOL    HW1 5910   0.744   1.487   0.286  0.0577 -0.7691  0.4978
 1762SOL    HW2 5911   0.816   1.571   0.407 -0.2839  0.6293 -0.2453
 1763SOL     OW 5912   4.229   1.528   3.255  0.0975 -0.1003  0.0250
 1763SOL    HW1 5913   4.258   1.613   3.211  2.5928  0.3076  2.1958
 1763SOL    HW2 5914   4.275   1.451   3.212 -0.9038 -0.2310 -0.8699
 1764SOL     OW 5915   4.909   3.999   4.827  0.5622 -0.3989 -0.1659
 1764SOL    HW1 5916   4.817   3.967   4.801  1.0361 -0.8097 -1.4175
 1764SOL    HW2 5917   4.922   4.092   4.793  1.2931 -1.0462 -1.7766
 1765SOL     OW 5918   3.059   1.917   3.617  0.2337  0.4023 -0.1978
 1765SOL    HW1 5919   3.134   1.961   3.568  1.3117  1.6117  2.3833
 1765SOL    HW2 5920   3.027   1.977   3.690 -0.5340 -1.7333  1.3128
 1766SOL     OW 5921   3.595   2.844   0.233  0.0817  0.1912  0.3188
 1766SOL    HW1 5922   3.497   2.856   0.246 -0.0670 -1.4974  1.0191
 1766SOL    HW2 5923   3.644   2.920   0.275 -0.8772  0.2720  1.3161
 1767SOL     OW 5924   0.745   2.068   1.801  0.3538 -0.3747 -0.0848
 1767SOL    HW1 5925   0.727   1.970   1.809  1.5847 -0.8077 -1.9833
 1767SOL    HW2 5926   0.798   2.098   1.881  0.8208 -1.4875  0.0487
 1768SOL     OW 5927   1.988   1.729   4.537 -0.8103 -0.3368 -0.4972
 1768SOL    HW1 5928   1.907   1.739   4.478 -2.5349 -0.5925  1.6994
 1768SOL    HW2 5929   2.010   1.633   4.547 -0.2738 -0.2713 -1.0259
 1769SOL     OW 5930   1.753   1.645   2.812  0.0785  0.3043 -0.1619
 1769SOL    HW1 5931   1.811   1.640   2.730  1.0808 -2.3079  0.5957
 1769SOL    HW2 5932   1.667   1.598   2.795 -0.5414  1.4629 -0.2986
 1770SOL     OW 5933   4.680   4.079   0.982 -0.1247 -0.0807 -0.0939
 1770SOL    HW1 5934   4.760   4.137   0.966  0.2132 -1.3013 -4.0165
 1770SOL    HW2 5935   4.602   4.116   0.932 -1.1143 -0.7135  0.9436
 1771SOL     OW 5936   0.944   4.473   0.161  0.1997  0.5314 -0.2834
 1771SOL    HW1 5937   0.865   4.430   0.205 -1.2050  1.3150 -1.9609
 1771SOL    HW2 5938   1.014   4.493   0.231 -1.0635 -0.1402  1.2387
 1772SOL     OW 5939   1.675   0.833   1.883 -0.3757 -0.0752 -0.1921
 1772SOL    HW1 5940   1.726   0.916   1.905 -0.3507 -0.2161  0.3109
 1772SOL    HW2 5941   1.649   0.834   1.787  2.1219 -0.8518 -0.9225
 1773SOL     OW 5942   4.414   1.383   2.601  0.2742 -0.5623  0.6159
 1773SOL    HW1 5943   4.502   1.390   2.648  0.8068 -0.4820 -0.3543
 1773SOL    HW2 5944   4.401   1.290   2.568  0.1230 -0.5053  0.5130
 1774SOL     OW 5945   4.147   0.260   1.878  0.1958  0.3832 -0.5426
 1774SOL    HW1 5946   4.143   0.324   1.801 -0.9544  0.5258 -0.3956
 1774SOL    HW2 5947   4.062   0.206   1.880  1.2508 -1.3558 -0.8234
 1775SOL     OW 5948   2.265   0.799   0.416 -0.6609  0.1626  0.1239
 1775SOL    HW1 5949   2.186   0.856   0.394 -0.4235  0.7491  0.7360
 1775SOL    HW2 5950   2.320   0.783   0.334 -0.8414  0.6503 -0.0907
 1776SOL     OW 5951   1.064   0.887   3.686 -0.5522  0.1624  0.4566
 1776SOL    HW1 5952   1.097   0.794   3.701  0.1872  0.5460  1.2998
 1776SOL    HW2 5953   1.114   0.950   3.745 -1.5370  1.0091  0.4162
 1777SOL     OW 5954   1.809   1.749   0.987  0.4891  0.7955 -0.0177
 1777SOL    HW1 5955   1.793   1.840   1.024 -0.3957  0.6685 -0.0627
 1777SOL    HW2 5956   1.832   1.756   0.890  1.8406  1.0574  0.2944
 1778SOL     OW 5957   4.030   1.195   3.178  0.1633  0.0504 -0.2689
 1778SOL    HW1 5958   4.003   1.100   3.198  2.2314 -0.3578  0.9537
 1778SOL    HW2 5959   4.067   1.200   3.086  0.8314 -0.5466 -0.0463
 1779SOL     OW 5960   0.314   2.858   4.432  0.0724  0.3389  0.4791
 1779SOL    HW1 5961   0.363   2.920   4.371  1.3685  0.2385  1.3720
 1779SOL    HW2 5962   0.356   2.860   4.523 -1.4698  0.0756  1.2315
 1780SOL     OW 5963   2.670   3.575   2.114 -0.6356  0.0937  0.3622
 1780SOL    HW1 5964   2.681   3.522   2.199  0.7131 -0.5340 -0.1614
 1780SOL    HW2 5965   2.663   3.512   2.037 -2.0866  0.6562  0.0065
 1781SOL     OW 5966   2.487   2.810   2.592 -0.3224  0.3704 -0.3364
 1781SOL    HW1 5967   2.493   2.880   2.663  0.0246  0.4722 -0.4653
 1781SOL    HW2 5968   2.399   2.819   2.544 -0.3701  0.5819 -0.2120
 1782SOL     OW 5969   1.914   1.400   2.277  0.0417 -0.4090  0.3393
 1782SOL    HW1 5970   1.988   1.458   2.311 -1.0423  0.1563  1.8815
 1782SOL    HW2 5971   1.844   1.391   2.349 -2.4731  0.9350 -1.7680
 1783SOL     OW 5972   0.381   2.352   4.493 -0.2766  0.0619 -0.3684
 1783SOL    HW1 5973   0.354   2.276   4.553  1.2276 -0.1619  0.0552
 1783SOL    HW2 5974   0.298   2.397   4.459 -1.1897 -0.9837  0.3593
 1784SOL     OW 5975   2.272   0.259   2.715 -0.3522 -0.7188  0.0527
 1784SOL    HW1 5976   2.208   0.324   2.674  1.2849  0.7823 -0.2179
 1784SOL    HW2 5977   2.283   0.280   2.812 -0.6294 -1.3013  0.2190
 1785SOL     OW 5978   0.131   1.721   0.797 -0.1577  0.4566  0.2503
 1785SOL    HW1 5979   0.036   1.692   0.806  0.0681  0.1814  2.3469
 1785SOL    HW2 5980   0.141   1.816   0.828  0.3293  0.2712  0.7007
 1786SOL     OW 5981   2.470   4.810   4.108  0.2280 -0.2902 -0.8250
 1786SOL    HW1 5982   2.385   4.861   4.106  0.8634  0.8498  0.1271
 1786SOL    HW2 5983   2.451   4.712   4.095 -1.2375 -0.0843 -0.3674
 1787SOL     OW 5984   2.620   1.960   0.627 -0.4389 -0.1797  0.3870
 1787SOL    HW1 5985   2.644   1.941   0.722  0.7736 -0.5803  0.0320
 1787SOL    HW2 5986   2.646   1.881   0.570 -0.7713  0.2145 -0.3282
 1788SOL     OW 5987   0.279   1.664   2.631 -0.3267  0.3032 -0.2211
 1788SOL    HW1 5988   0.213   1.700   2.564 -2.4437 -1.5514  0.7256
 1788SOL    HW2 5989   0.249   1.688   2.723 -0.2104 -1.3359  0.2789
 1789SOL     OW 5990   1.949   2.304   0.929  0.0807  0.1912  0.4148
 1789SOL    HW1 5991   1.891   2.293   1.010  0.6309  1.2247  0.9667
 1789SOL    HW2 5992   1.892   2.327   0.850 -0.5066 -1.2454  0.3963
 1790SOL     OW 5993   3.626   1.368   3.183  0.0373  0.0283  0.3370
 1790SOL    HW1 5994   3.530   1.386   3.164 -0.0217 -0.7903 -0.1762
 1790SOL    HW2 5995   3.660   1.434   3.250 -1.0513 -0.1068  1.0347
 1791SOL     OW 5996   1.109   4.759   0.480 -0.1354 -0.3222 -0.0744
 1791SOL    HW1 5997   1.045   4.836   0.480  0.8751  0.5429 -0.0043
 1791SOL    HW2 5998   1.121   4.726   0.386  1.8143  1.6929 -0.6094
 1792SOL     OW 5999   2.003   3.245   2.142  0.6620  0.0734  0.0270
 1792SOL    HW1 6000   2.008   3.241   2.242 -1.2641  0.1417  0.1739
 1792SOL    HW2 6001   1.993   3.341   2.113  1.4252  0.0736 -0.2559
 1793SOL     OW 6002   0.327   2.274   2.839 -0.0981 -0.2875 -0.0435
 1793SOL    HW1 6003   0.415   2.247   2.880 -0.4758 -1.3251  0.1368
 1793SOL    HW2 6004   0.261   2.291   2.912 -1.0312 -3.0237 -0.1370
 1794SOL     OW 6005   1.119   3.308   0.724  0.0862  0.0620 -0.1306
 1794SOL    HW1 6006   1.033   3.348   0.692  0.0959 -0.5715 -0.9858
 1794SOL    HW2 6007   1.191   3.378   0.725 -0.2692  0.4252 -0.0949
 1795SOL     OW 6008   1.800   3.404   0.741 -0.6605 -0.4993 -0.1291
 1795SOL    HW1 6009   1.827   3.322   0.691  0.3665 -0.2751  0.0473
 1795SOL    HW2 6010   1.701   3.404   0.753 -0.7447 -1.3644 -0.7369
 1796SOL     OW 6011   3.915   0.951   2.132  0.3018 -0.3713 -0.4126
 1796SOL    HW1 6012   3.874   1.040   2.117  2.0783  0.2154 -2.2948
 1796SOL    HW2 6013   3.998   0.961   2.188 -1.3757 -1.3836  2.4264
 1797SOL     OW 6014   4.564   0.184   4.835 -0.2968 -0.3371 -0.1477
 1797SOL    HW1 6015   4.476   0.138   4.849 -0.3096 -0.5313 -0.8062
 1797SOL    HW2 6016   4.590   0.233   4.918 -0.1211 -1.8155  0.7141
 1798SOL     OW 6017   0.997   3.698   0.533 -0.3684  0.3778 -0.1821
 1798SOL    HW1 6018   0.947   3.778   0.568  0.0593  0.9982 -0.9488
 1798SOL    HW2 6019   0.969   3.680   0.439 -2.1703 -1.8253  0.6934
 1799SOL     OW 6020   2.787   4.438   3.719  0.2424 -0.6554  0.3644
 1799SOL    HW1 6021   2.732   4.457   3.800 -1.2322 -0.7554 -0.5729
 1799SOL    HW2 6022   2.728   4.401   3.647  1.5855 -0.9389 -0.6263
 1800SOL     OW 6023   1.955   4.675   3.812 -0.0975 -0.2217 -0.2305
 1800SOL    HW1 6024   1.859   4.703   3.816 -0.1553 -0.4886  0.3670
 1800SOL    HW2 6025   1.978   4.646   3.719 -0.6749 -0.4358 -0.3096
 1801SOL     OW 6026   2.708   1.024   2.909  0.0554 -0.4151 -0.0174
 1801SOL    HW1 6027   2.738   0.929   2.909 -0.3711 -0.6033  2.5607
 1801SOL    HW2 6028   2.759   1.076   2.977 -2.1577  0.3223  1.1872
 1802SOL     OW 6029   0.949   1.554   3.457 -0.1018  0.1452 -0.4701
 1802SOL    HW1 6030   0.969   1.649   3.481 -0.5112  0.1673 -0.1965
 1802SOL    HW2 6031   1.018   1.494   3.498 -0.4729  0.2337  0.3189
 1803SOL     OW 6032   2.654   0.724   0.126 -0.1155  0.0499  0.0836
 1803SOL    HW1 6033   2.686   0.669   0.050  1.7750 -0.4843  1.2075
 1803SOL    HW2 6034   2.697   0.814   0.123 -0.4113  0.1990  0.2497
 1804SOL     OW 6035   1.455   3.889   4.774 -0.1789  0.1453 -0.2746
 1804SOL    HW1 6036   1.453   3.927   4.867  0.0234  2.4559 -1.1548
 1804SOL    HW2 6037   1.544   3.846   4.758 -0.3276 -0.5622  0.6810
 1805SOL     OW 6038   3.305   3.134   3.951  0.6738 -0.7668  0.1979
 1805SOL    HW1 6039   3.248   3.133   4.034  1.1254 -1.2155  0.5079
 1805SOL    HW2 6040   3.291   3.220   3.902  0.5892 -0.3870  0.8711
 1806SOL     OW 6041   2.048   0.604   2.806 -0.0188 -0.1535 -0.5030
 1806SOL    HW1 6042   2.069   0.690   2.759  0.4736  0.2748  0.4599
 1806SOL    HW2 6043   2.007   0.624   2.895 -0.0898 -0.9241 -0.3539
 1807SOL     OW 6044   0.494   0.652   0.109  0.3334  0.0095  0.2236
 1807SOL    HW1 6045   0.444   0.664   0.194  0.0466  0.1715  0.0321
 1807SOL    HW2 6046   0.584   0.697   0.116  0.2507  0.1489  0.3846
 1808SOL     OW 6047   2.913   3.824   2.131 -0.1043 -0.2499  0.2139
 1808SOL    HW1 6048   2.940   3.918   2.152  0.1151  0.0848 -1.4778
 1808SOL    HW2 6049   2.821   3.823   2.093 -0.3918 -0.8091  0.8971
 1809SOL     OW 6050   3.703   0.522   3.743 -0.4553  0.2633  0.4167
 1809SOL    HW1 6051   3.756   0.530   3.659 -0.4938 -0.7369  0.2917
 1809SOL    HW2 6052   3.755   0.563   3.819 -0.2000  0.7074  0.0083
 1810SOL     OW 6053   1.707   2.843   4.253 -0.3047  0.1877 -0.4405
 1810SOL    HW1 6054   1.671   2.874   4.341 -0.5112 -0.7405 -0.1869
 1810SOL    HW2 6055   1.806   2.854   4.252 -0.4002  1.1733 -0.4985
 1811SOL     OW 6056   3.524   0.009   1.399 -0.2034  0.1036 -1.0003
 1811SOL    HW1 6057   3.569  -0.017   1.484  1.4466 -1.7032 -2.3090
 1811SOL    HW2 6058   3.431  -0.026   1.398 -0.8651  1.7152  0.7497
 1812SOL     OW 6059   3.043   1.007   3.979 -0.0252  0.9423  0.1542
 1812SOL    HW1 6060   3.085   1.066   3.910  3.7080 -0.4589  0.9884
 1812SOL    HW2 6061   3.104   1.000   4.058 -1.5178 -1.9211  1.1911
 1813SOL     OW 6062   2.180   3.178   0.074 -0.0867 -0.2685 -0.3214
 1813SOL    HW1 6063   2.096   3.127   0.058 -1.9915  1.9765  1.7526
 1813SOL    HW2 6064   2.183   3.258   0.013  1.9519 -1.6746 -2.2402
 1814SOL     OW 6065   4.535   0.022   3.042 -0.1322  0.2105 -0.4700
 1814SOL    HW1 6066   4.470   0.091   3.009 -0.1448  0.9463  0.9902
 1814SOL    HW2 6067   4.546   0.032   3.141  0.1161 -1.6899 -0.2634
 1815SOL     OW 6068   1.206   0.225   0.496 -0.1402  0.3226 -0.2766
 1815SOL    HW1 6069   1.117   0.255   0.463  0.3178 -1.2076 -3.1508
 1815SOL    HW2 6070   1.274   0.297   0.478 -0.6137  1.2591  1.4163
 1816SOL     OW 6071   2.339   2.759   0.935  0.3226  0.1401  0.3182
 1816SOL    HW1 6072   2.405   2.785   0.864 -0.3668 -0.4812 -0.5745
 1816SOL    HW2 6073   2.264   2.825   0.936  0.2333  0.0379  0.3441
 1817SOL     OW 6074   4.098   4.787   0.947 -0.1372 -0.0375  0.0200
 1817SOL    HW1 6075   4.061   4.832   1.029  2.6569  0.0961  1.3370
 1817SOL    HW2 6076   4.060   4.830   0.865  0.6162  3.2075  1.2229
 1818SOL     OW 6077   0.852   2.977   0.491  0.1808 -0.2254  0.3101
 1818SOL    HW1 6078   0.931   3.036   0.508 -0.0051  0.6256 -1.5726
 1818SOL    HW2 6079   0.883   2.888   0.456  0.3054  0.6068 -1.8115
 1819SOL     OW 6080   1.068   4.880   2.498  0.2233  0.2419 -0.2960
 1819SOL    HW1 6081   1.069   4.866   2.399  2.6726  1.2320 -0.5070
 1819SOL    HW2 6082   1.159   4.861   2.535 -0.6600 -0.1902  1.8041
 1820SOL     OW 6083   2.986   0.576   0.003 -0.7621  0.3917  0.2535
 1820SOL    HW1 6084   2.896   0.533  -0.006  0.1155 -1.8581  1.6072
 1820SOL    HW2 6085   3.029   0.582  -0.087 -1.1238 -1.1365 -0.0436
 1821SOL     OW 6086   4.468   4.446   0.950  0.1003 -0.1618 -0.0461
 1821SOL    HW1 6087   4.542   4.494   0.903  0.0407  0.7320  0.7402
 1821SOL    HW2 6088   4.380   4.487   0.926 -0.3143 -1.8890 -1.8207
 1822SOL     OW 6089   0.383   3.947   1.439 -0.5774 -0.5459  0.2613
 1822SOL    HW1 6090   0.432   3.871   1.395  0.1953 -0.5616  1.1344
 1822SOL    HW2 6091   0.305   3.973   1.382  1.7971  1.1493 -2.4927
 1823SOL     OW 6092   2.163   4.616   4.463 -0.0799 -0.0780  0.2152
 1823SOL    HW1 6093   2.236   4.628   4.530 -0.7329 -0.1032  0.9500
 1823SOL    HW2 6094   2.140   4.704   4.422 -1.5367  0.4583  2.0425
 1824SOL     OW 6095   1.844   1.516   0.571 -0.0101  0.1862 -0.0629
 1824SOL    HW1 6096   1.921   1.554   0.519 -1.0670 -0.0430 -1.8764
 1824SOL    HW2 6097   1.802   1.442   0.518 -0.9698 -0.2547  1.2687
 1825SOL     OW 6098   1.987   2.877   4.225 -0.4470  0.5334 -0.3392
 1825SOL    HW1 6099   1.990   2.865   4.126  0.4638  3.8038 -0.8150
 1825SOL    HW2 6100   2.067   2.834   4.266 -0.3168  0.0113 -1.1131
 1826SOL     OW 6101   2.319   3.958   0.669  0.2414 -0.4844 -0.1924
 1826SOL    HW1 6102   2.327   3.859   0.681 -1.5960 -0.5136  1.1659
 1826SOL    HW2 6103   2.247   3.993   0.728  3.8200  2.4045  2.9609
 1827SOL     OW 6104   3.014   2.330   4.574  0.3200 -0.1966 -0.0816
 1827SOL    HW1 6105   3.098   2.292   4.615 -0.9720  0.0605  3.0982
 1827SOL    HW2 6106   3.038   2.408   4.517  2.2366  0.2916  1.2643
 1828SOL     OW 6107   2.591   0.661   4.504 -0.3761 -0.3345 -0.4580
 1828SOL    HW1 6108   2.565   0.645   4.599 -2.6072 -0.6741 -1.0761
 1828SOL    HW2 6109   2.639   0.749   4.497  2.8185 -1.7457  1.4015
 1829SOL     OW 6110   0.369   0.476   1.014  0.4105 -0.3868  0.1048
 1829SOL    HW1 6111   0.364   0.414   0.936  1.8792  0.1030 -0.4205
 1829SOL    HW2 6112   0.445   0.449   1.074  1.2265  0.9967 -0.2557
 1830SOL     OW 6113   1.697   1.733   4.440 -0.3805  0.6795 -0.3032
 1830SOL    HW1 6114   1.708   1.772   4.349 -1.4804 -0.5160 -0.9930
 1830SOL    HW2 6115   1.627   1.661   4.437  1.0467 -0.8457  1.0303
 1831SOL     OW 6116   1.519   3.272   1.242 -0.7123 -0.4991  0.4674
 1831SOL    HW1 6117   1.482   3.194   1.191 -1.0413 -2.1648  3.0634
 1831SOL    HW2 6118   1.608   3.249   1.280 -1.0740  0.1448  1.7765
 1832SOL     OW 6119   1.206   2.106   0.373  0.4316 -0.3297 -0.0619
 1832SOL    HW1 6120   1.299   2.073   0.357 -0.1093 -1.3937 -1.0825
 1832SOL    HW2 6121   1.147   2.030   0.401  0.1397  0.5579  1.9333
 1833SOL     OW 6122   3.138   4.846   1.702  0.1910 -0.3365  0.1343
 1833SOL    HW1 6123   3.170   4.842   1.796 -0.0083  0.0306  0.2184
 1833SOL    HW2 6124   3.074   4.772   1.685 -1.6504  0.9826  0.9965
 1834SOL     OW 6125   1.353   2.461   3.096 -0.3877  0.7888 -0.0798
 1834SOL    HW1 6126   1.295   2.380   3.108  1.0784 -0.3349 -0.3824
 1834SOL    HW2 6127   1.341   2.522   3.175 -0.9411 -0.0780  0.5260
 1835SOL     OW 6128   0.338   3.871   4.221 -0.1568 -0.0784 -0.3547
 1835SOL    HW1 6129   0.272   3.942   4.247 -0.1796  0.1577 -1.0342
 1835SOL    HW2 6130   0.429   3.911   4.217 -0.1398 -0.1389 -0.5403
 1836SOL     OW 6131   1.773   2.458   0.232  0.4636  0.6267 -0.2665
 1836SOL    HW1 6132   1.689   2.477   0.181 -0.4406 -3.0928 -0.4607
 1836SOL    HW2 6133   1.753   2.458   0.330 -0.4964 -2.4742 -0.3552
 1837SOL     OW 6134   0.289   0.686   2.117 -0.3931 -0.2287 -0.0110
 1837SOL    HW1 6135   0.340   0.602   2.095 -0.6479  0.0677 -1.8667
 1837SOL    HW2 6136   0.195   0.677   2.085 -0.4041  0.8064 -0.2892
 1838SOL     OW 6137   3.695   2.440   3.903 -0.0123  0.2477 -0.1573
 1838SOL    HW1 6138   3.699   2.495   3.820 -1.5641 -0.6027 -0.8389
 1838SOL    HW2 6139   3.600   2.431   3.934  0.5631  0.9854  2.0542
 1839SOL     OW 6140   2.696   2.312   2.340 -0.1766 -0.0834 -0.1220
 1839SOL    HW1 6141   2.599   2.293   2.353 -0.0754 -0.6548 -0.1828
 1839SOL    HW2 6142   2.735   2.345   2.426 -0.3283 -0.2837  0.0249
 1840SOL     OW 6143   3.628   1.547   2.884 -0.1023  0.2127 -0.2708
 1840SOL    HW1 6144   3.581   1.499   2.959  1.6200 -0.6027  0.3559
 1840SOL    HW2 6145   3.719   1.575   2.916 -0.4468  2.4994 -1.1567
 1841SOL     OW 6146   0.571   3.549   1.162 -0.6490 -1.0466  0.7962
 1841SOL    HW1 6147   0.516   3.567   1.080  0.7207 -1.3801 -0.2230
 1841SOL    HW2 6148   0.658   3.598   1.155  0.4421 -2.8657  0.9810
 1842SOL     OW 6149   2.048   2.877   0.193 -0.6026 -0.3489  0.0730
 1842SOL    HW1 6150   2.014   2.799   0.141  0.2352 -0.4832 -0.2900
 1842SOL    HW2 6151   2.147   2.870   0.203 -0.6051  0.3027  0.6572
 1843SOL     OW 6152   3.570   3.342   0.587 -0.2563  0.4536  0.1444
 1843SOL    HW1 6153   3.612   3.400   0.656  1.2962 -1.6437  1.0365
 1843SOL    HW2 6154   3.553   3.251   0.624  0.5332 -0.7247 -2.1629
 1844SOL     OW 6155   0.177   0.283   2.961 -0.1944  0.4078 -0.2341
 1844SOL    HW1 6156   0.134   0.284   3.051  0.5301  1.1941  0.1153
 1844SOL    HW2 6157   0.109   0.307   2.891 -0.4202  1.3102  0.2735
 1845SOL     OW 6158   0.950   3.803   4.347 -0.0356 -0.0936 -0.1260
 1845SOL    HW1 6159   1.011   3.862   4.294  0.8020 -0.5755  0.2848
 1845SOL    HW2 6160   0.958   3.824   4.444  1.2922 -1.7448  0.1720
 1846SOL     OW 6161   2.445   0.463   4.347  0.2259 -0.5233  0.3126
 1846SOL    HW1 6162   2.438   0.508   4.258 -1.9106 -1.1417  0.1112
 1846SOL    HW2 6163   2.498   0.521   4.409 -0.6880  1.3092 -0.5317
 1847SOL     OW 6164   2.090   3.005   3.731 -0.5277 -0.6553  0.0630
 1847SOL    HW1 6165   2.120   3.071   3.662 -0.9125 -0.0851  0.4323
 1847SOL    HW2 6166   2.093   2.912   3.693  0.8748 -0.5305 -0.1788
 1848SOL     OW 6167   4.060   4.091   2.295 -0.2718 -0.0802 -0.1896
 1848SOL    HW1 6168   4.030   4.186   2.287 -0.6947 -0.1823  0.1873
 1848SOL    HW2 6169   4.156   4.089   2.324 -0.1511  0.2309 -0.5525
 1849SOL     OW 6170   4.097   1.966   1.302 -0.3084  0.0067 -0.1525
 1849SOL    HW1 6171   4.138   2.043   1.350  0.9147  1.6253 -3.4491
 1849SOL    HW2 6172   4.052   1.999   1.218  0.2243 -2.8153 -1.6805
 1850SOL     OW 6173   4.527   1.362   3.785 -0.9246 -0.0550 -0.3945
 1850SOL    HW1 6174   4.543   1.264   3.801  1.8300  0.4222  0.2532
 1850SOL    HW2 6175   4.565   1.387   3.696  0.3934  0.8017  0.3784
 1851SOL     OW 6176   4.782   3.307   3.985 -0.2728 -0.2578 -0.2399
 1851SOL    HW1 6177   4.737   3.229   3.941 -1.3372 -0.0569  0.4409
 1851SOL    HW2 6178   4.787   3.383   3.921 -0.9662 -0.2698 -0.3176
 1852SOL     OW 6179   4.037   0.883   3.491 -0.6633  0.0596  0.2506
 1852SOL    HW1 6180   4.012   0.919   3.581 -1.3193  0.8894 -0.2464
 1852SOL    HW2 6181   4.092   0.951   3.442 -0.7372 -0.1806 -0.1692
 1853SOL     OW 6182   1.217   1.472   2.648  0.0331  0.2404 -0.0184
 1853SOL    HW1 6183   1.121   1.446   2.640  0.4836 -1.2084 -1.2959
 1853SOL    HW2 6184   1.254   1.436   2.734 -0.1157 -0.8775 -0.3978
 1854SOL     OW 6185   3.237   0.884   3.517  0.1479 -0.1424 -0.1259
 1854SOL    HW1 6186   3.168   0.939   3.470  0.7979 -0.8998 -2.0527
 1854SOL    HW2 6187   3.313   0.866   3.455  1.6080 -0.2422  1.6090
 1855SOL     OW 6188   3.281   1.615   4.613  0.3211 -0.7380  0.2443
 1855SOL    HW1 6189   3.246   1.568   4.693  1.1662 -0.0087  1.0699
 1855SOL    HW2 6190   3.214   1.681   4.580  0.0972 -0.8136  0.5476
 1856SOL     OW 6191   0.384   0.621   0.369 -0.1844 -0.2788  0.5614
 1856SOL    HW1 6192   0.479   0.648   0.355 -0.3119 -0.9448 -2.2907
 1856SOL    HW2 6193   0.337   0.689   0.425  1.9419  0.0343  2.0606
 1857SOL     OW 6194   2.032   3.479   0.429  0.3598  0.3998  0.0978
 1857SOL    HW1 6195   2.088   3.524   0.499  1.5446  0.3129 -0.7594
 1857SOL    HW2 6196   2.052   3.519   0.340 -0.8546  0.2547 -0.2536
 1858SOL     OW 6197   3.639   3.952   2.312 -0.5322 -0.3550 -0.4440
 1858SOL    HW1 6198   3.643   3.857   2.282  0.6843  0.0125 -1.5395
 1858SOL    HW2 6199   3.698   3.964   2.392 -0.8135 -0.5438 -0.2046
 1859SOL     OW 6200   2.021   3.582   0.756  0.2800 -0.3071  0.2085
 1859SOL    HW1 6201   2.072   3.520   0.815 -0.5969 -1.2221  0.0457
 1859SOL    HW2 6202   1.924   3.556   0.756 -0.9201  3.3385  3.1230
 1860SOL     OW 6203   1.579   3.752   2.737  0.9415  0.5397  0.4869
 1860SOL    HW1 6204   1.497   3.722   2.785 -0.6379  1.4960 -1.4392
 1860SOL    HW2 6205   1.558   3.765   2.640  3.6631 -0.1634 -0.2904
 1861SOL     OW 6206   2.982   1.916   3.993  0.0107 -0.0174  0.3168
 1861SOL    HW1 6207   2.971   1.974   3.913  0.0537 -0.5996 -0.1170
 1861SOL    HW2 6208   3.070   1.935   4.037  2.0144 -2.6014 -2.2151
 1862SOL     OW 6209   1.690   2.243   2.420 -0.7871 -0.0079  0.2425
 1862SOL    HW1 6210   1.649   2.154   2.441 -0.6048 -0.4374 -1.1262
 1862SOL    HW2 6211   1.628   2.316   2.448 -0.3916 -0.4780  2.5948
 1863SOL     OW 6212   4.743   2.395   2.100 -0.2113 -0.2637  0.1429
 1863SOL    HW1 6213   4.751   2.455   2.020  1.1723  0.5820  0.8768
 1863SOL    HW2 6214   4.807   2.318   2.090  0.6351  0.3361  0.8303
 1864SOL     OW 6215   4.664   0.144   3.862  0.0028  0.3408 -0.1989
 1864SOL    HW1 6216   4.602   0.085   3.810  0.2453  0.4069 -0.5659
 1864SOL    HW2 6217   4.756   0.139   3.823  0.3648 -0.2107  0.7026
 1865SOL     OW 6218   3.469   0.907   4.892 -0.5871 -0.2755 -0.2277
 1865SOL    HW1 6219   3.463   0.813   4.925  1.7912 -0.5067 -0.2800
 1865SOL    HW2 6220   3.505   0.907   4.799 -0.1387  0.7105 -0.0689
 1866SOL     OW 6221   3.117   0.744   2.952 -0.1040  0.2115  0.6502
 1866SOL    HW1 6222   3.166   0.796   2.881 -1.0724  1.2566  0.7040
 1866SOL    HW2 6223   3.075   0.664   2.910  0.3859  0.1283  0.3018
 1867SOL     OW 6224   1.208   4.904   2.857 -0.0311 -0.0879 -0.3745
 1867SOL    HW1 6225   1.116   4.941   2.870 -0.0854  0.9279 -3.0933
 1867SOL    HW2 6226   1.203   4.804   2.847 -0.4893 -0.3395  1.7646
 1868SOL     OW 6227   1.273   1.205   3.647  0.0555  1.1906 -0.3002
 1868SOL    HW1 6228   1.238   1.159   3.729  0.8844  0.1479 -0.5111
 1868SOL    HW2 6229   1.333   1.281   3.674  2.0639 -0.4594  0.1313
 1869SOL     OW 6230   3.467   0.887   4.261 -0.4126 -0.0883  0.4479
 1869SOL    HW1 6231   3.413   0.855   4.184  0.9053  1.6209 -1.2716
 1869SOL    HW2 6232   3.406   0.923   4.332 -1.5963 -0.2119 -0.4868
 1870SOL     OW 6233   2.368   3.992   1.446 -0.0072 -0.6729  0.4876
 1870SOL    HW1 6234   2.291   3.964   1.502  0.1913 -0.8198  0.6869
 1870SOL    HW2 6235   2.429   4.050   1.500 -0.5666  0.4088  0.0002
 1871SOL     OW 6236   0.104   4.615   1.877 -0.1423  0.2661  0.2837
 1871SOL    HW1 6237   0.062   4.554   1.810 -0.3102  0.1429  0.5007
 1871SOL    HW2 6238   0.043   4.692   1.894  0.2124  0.6651 -0.2333
 1872SOL     OW 6239   0.570   4.656   4.829  0.1639  0.1583 -0.1755
 1872SOL    HW1 6240   0.582   4.755   4.819  0.3091  0.0383 -1.2676
 1872SOL    HW2 6241   0.611   4.609   4.751 -0.4241 -0.7321  0.0370
 1873SOL     OW 6242   0.842   2.586   0.164  0.0579  0.2743  0.1221
 1873SOL    HW1 6243   0.832   2.644   0.084 -1.2462 -0.4051 -0.2201
 1873SOL    HW2 6244   0.857   2.644   0.245  1.2997  0.9633 -0.5623
 1874SOL     OW 6245   3.293   3.889   3.680  0.4158 -0.4444 -0.7144
 1874SOL    HW1 6246   3.320   3.964   3.740  1.6877 -1.6491  0.3078
 1874SOL    HW2 6247   3.297   3.803   3.731  0.1213 -1.3511 -2.1556
 1875SOL     OW 6248   2.385   2.586   4.814  0.1852  0.7364 -0.5314
 1875SOL    HW1 6249   2.352   2.677   4.790 -0.2186  0.7825  0.1607
 1875SOL    HW2 6250   2.461   2.561   4.754  1.4142  2.2112  0.3351
 1876SOL     OW 6251   4.352   2.596   0.598  0.1043 -0.3201  0.5132
 1876SOL    HW1 6252   4.299   2.680   0.603  0.4511 -0.1498  1.5633
 1876SOL    HW2 6253   4.298   2.525   0.552 -0.4040  0.3122  0.1257
 1877SOL     OW 6254   0.940   4.446   1.044  0.4702 -0.2203  0.3982
 1877SOL    HW1 6255   0.928   4.395   1.130 -0.0220  0.5849  0.8164
 1877SOL    HW2 6256   1.017   4.509   1.054  2.2817 -2.1070 -0.7287
 1878SOL     OW 6257   2.322   3.446   2.351 -0.1799  0.1535  0.4315
 1878SOL    HW1 6258   2.354   3.502   2.275  3.4196 -0.5241  1.2812
 1878SOL    HW2 6259   2.338   3.494   2.438 -1.7786 -0.1804  0.9609
 1879SOL     OW 6260   2.125   4.893   2.919  0.2437 -0.2209 -0.2040
 1879SOL    HW1 6261   2.173   4.977   2.944 -0.2720  0.2093 -0.6434
 1879SOL    HW2 6262   2.192   4.819   2.906  0.8255  0.4621 -1.2119
 1880SOL     OW 6263   1.680   1.811   4.162  0.4158  0.2972 -0.2054
 1880SOL    HW1 6264   1.763   1.770   4.125  0.0466 -1.3683  0.7147
 1880SOL    HW2 6265   1.620   1.839   4.088 -0.0013 -2.3142 -0.9412
 1881SOL     OW 6266   1.595   4.735   4.072  0.4873  0.2604 -0.1836
 1881SOL    HW1 6267   1.653   4.654   4.075 -0.1958 -0.2173  0.4482
 1881SOL    HW2 6268   1.621   4.791   3.994  1.9496  0.1865  0.2244
 1882SOL     OW 6269   1.683   0.038   4.237  0.0912 -0.4730 -0.2377
 1882SOL    HW1 6270   1.664  -0.024   4.160  0.1073  0.5612 -1.1048
 1882SOL    HW2 6271   1.781   0.058   4.239  0.3951 -1.9352  1.2068
 1883SOL     OW 6272   2.945   2.243   3.148  0.1064  0.4529  0.0789
 1883SOL    HW1 6273   2.885   2.191   3.086 -1.6620 -0.0575  2.1250
 1883SOL    HW2 6274   2.973   2.184   3.223  1.8651  1.1993  0.0477
 1884SOL     OW 6275   0.426   0.048   3.604  0.6315 -0.3802  0.0631
 1884SOL    HW1 6276   0.381   0.103   3.534 -1.3992 -1.7011  0.2476
 1884SOL    HW2 6277   0.462  -0.036   3.564  1.7126  0.0024  0.1880
 1885SOL     OW 6278   1.868   0.768   0.816 -0.7810  0.4984 -0.2663
 1885SOL    HW1 6279   1.927   0.845   0.841 -1.3501  0.8235  0.0793
 1885SOL    HW2 6280   1.915   0.683   0.837 -1.3391  0.7343  2.2645
 1886SOL     OW 6281   1.359   0.831   3.396  0.2032 -0.0786 -0.4256
 1886SOL    HW1 6282   1.419   0.844   3.475 -0.0265  0.2343 -0.3004
 1886SOL    HW2 6283   1.344   0.918   3.350 -0.0900 -0.1678 -0.5045
 1887SOL     OW 6284   2.410   2.078   4.200  0.5641  0.3256 -0.3384
 1887SOL    HW1 6285   2.459   2.024   4.132 -1.0360  1.5628 -2.6024
 1887SOL    HW2 6286   2.333   2.025   4.235  1.4647 -0.3606  0.6854
 1888SOL     OW 6287   0.163   0.801   2.702 -0.4547  0.3242 -0.4381
 1888SOL    HW1 6288   0.081   0.850   2.672  0.4553  1.1602 -1.6599
 1888SOL    HW2 6289   0.147   0.703   2.698 -1.2078  0.4678 -1.2618
 1889SOL     OW 6290   1.331   3.243   3.880 -0.7501  0.4216 -0.0216
 1889SOL    HW1 6291   1.386   3.224   3.961  0.9622 -0.2045 -1.2637
 1889SOL    HW2 6292   1.325   3.342   3.866  0.5178  0.4890 -0.1499
 1890SOL     OW 6293   0.271   3.840   0.887 -0.3093  0.0968 -0.2664
 1890SOL    HW1 6294   0.265   3.797   0.797  0.6338  0.5827 -0.5733
 1890SOL    HW2 6295   0.185   3.887   0.906 -1.4080 -1.9712  0.1330
 1891SOL     OW 6296   4.000   4.756   3.719 -0.0118  0.4437 -0.3536
 1891SOL    HW1 6297   4.065   4.757   3.643 -0.6866  1.2494 -0.9370
 1891SOL    HW2 6298   4.000   4.666   3.762  1.7493  0.5288 -0.1035
 1892SOL     OW 6299   2.476   4.176   0.614 -0.1890  0.1507 -0.2480
 1892SOL    HW1 6300   2.432   4.090   0.640  0.7123 -0.0554  0.6662
 1892SOL    HW2 6301   2.515   4.167   0.522  1.6435 -1.1312  0.6037
 1893SOL     OW 6302   0.072   0.046   2.365 -0.1381  0.3423 -0.3528
 1893SOL    HW1 6303   0.114  -0.044   2.354 -2.5605 -1.1281  1.3582
 1893SOL    HW2 6304   0.140   0.117   2.347  1.8542 -1.7889 -1.7993
 1894SOL     OW 6305   3.771   1.343   2.467 -0.0107  0.3293 -0.6984
 1894SOL    HW1 6306   3.808   1.251   2.457 -0.9760 -0.3308  1.2500
 1894SOL    HW2 6307   3.845   1.410   2.463  0.8865 -0.6484 -0.6323
 1895SOL     OW 6308   1.913   4.485   2.900  0.7369 -0.0321  0.4462
 1895SOL    HW1 6309   1.996   4.484   2.843  0.5542 -0.1869  0.1808
 1895SOL    HW2 6310   1.922   4.556   2.970  0.8006  0.4270 -0.0186
 1896SOL     OW 6311   0.648   0.196   3.010 -0.0422 -0.1756 -0.0217
 1896SOL    HW1 6312   0.610   0.200   3.103 -0.6152 -0.7176 -0.2245
 1896SOL    HW2 6313   0.585   0.240   2.946  0.5914  0.6552 -0.0863
 1897SOL     OW 6314   2.420   2.739   1.220 -0.3850  0.4287  0.9788
 1897SOL    HW1 6315   2.394   2.747   1.124 -0.0156 -1.7062  0.6519
 1897SOL    HW2 6316   2.354   2.789   1.276 -0.8255  1.3905 -0.3254
 1898SOL     OW 6317   3.073   4.588   0.097 -0.4573  0.1664 -0.2017
 1898SOL    HW1 6318   3.150   4.530   0.070 -1.4997 -0.4882 -1.8630
 1898SOL    HW2 6319   3.056   4.576   0.195  1.1513 -0.1338  0.0692
 1899SOL     OW 6320   2.815   2.736   4.341 -0.4823 -0.1644  0.2543
 1899SOL    HW1 6321   2.759   2.654   4.328  1.0342 -1.1809 -0.1256
 1899SOL    HW2 6322   2.787   2.806   4.275  0.0954 -1.4339 -1.4008
 1900SOL     OW 6323   3.789   3.922   1.381 -0.4556  0.4158  0.7500
 1900SOL    HW1 6324   3.862   3.923   1.449  0.1888 -3.4450  0.3596
 1900SOL    HW2 6325   3.720   3.854   1.407 -0.5874 -0.6366 -1.9886
 1901SOL     OW 6326   3.449   1.349   0.450 -0.6804  0.2866  0.3524
 1901SOL    HW1 6327   3.499   1.341   0.364 -1.7602 -1.8455 -0.1553
 1901SOL    HW2 6328   3.511   1.336   0.527  0.5298  3.4309  0.0238
 1902SOL     OW 6329   0.696   1.029   2.471  0.0588 -0.0484  0.0125
 1902SOL    HW1 6330   0.637   0.965   2.420 -0.1594  0.4495 -0.3689
 1902SOL    HW2 6331   0.791   1.011   2.449 -0.0562  0.5310 -1.0364
 1903SOL     OW 6332   1.251   2.254   2.365 -0.1685  0.5673  0.7197
 1903SOL    HW1 6333   1.301   2.222   2.284 -0.5582  1.6246  0.0406
 1903SOL    HW2 6334   1.313   2.308   2.422 -0.3275  1.2581  0.2510
 1904SOL     OW 6335   2.600   4.176   4.757 -0.4260 -0.6390  0.6414
 1904SOL    HW1 6336   2.602   4.275   4.760  0.7895 -0.6623  2.6236
 1904SOL    HW2 6337   2.692   4.141   4.738 -0.4779 -1.3719  1.6180
 1905SOL     OW 6338   0.945   0.608   4.579 -0.0695 -0.1641  0.4236
 1905SOL    HW1 6339   0.933   0.534   4.513  1.6228  0.3401 -0.5276
 1905SOL    HW2 6340   1.039   0.606   4.613 -0.9495 -0.5618  3.0810
 1906SOL     OW 6341   0.531   4.385   3.778 -0.4840 -0.1829 -0.2971
 1906SOL    HW1 6342   0.585   4.464   3.807 -0.1362 -0.0118 -1.3485
 1906SOL    HW2 6343   0.576   4.301   3.808 -1.0884  0.0075  1.2175
 1907SOL     OW 6344   0.959   1.393   2.575 -0.2872 -0.0250 -0.4467
 1907SOL    HW1 6345   0.984   1.383   2.478 -1.0333 -1.3552 -0.5295
 1907SOL    HW2 6346   0.939   1.303   2.614  1.3067  0.3384  1.3329
 1908SOL     OW 6347   4.859   2.801   1.034  0.2445  0.3581 -0.3240
 1908SOL    HW1 6348   4.797   2.758   0.969 -2.7315  2.6320  0.7213
 1908SOL    HW2 6349   4.896   2.885   0.994  0.9859  0.0938 -0.1980
 1909SOL     OW 6350   3.058   0.035   4.016  0.5603 -0.4522  0.0984
 1909SOL    HW1 6351   3.005   0.043   4.101  0.7435  1.2330  0.0781
 1909SOL    HW2 6352   3.003  -0.012   3.947 -0.0637 -0.6998  0.7516
 1910SOL     OW 6353   3.515   3.965   1.886 -0.0987  0.1505  0.2272
 1910SOL    HW1 6354   3.442   3.900   1.865 -0.3994  0.2826  0.8382
 1910SOL    HW2 6355   3.535   4.021   1.806 -1.9409  1.3592  0.5565
 1911SOL     OW 6356   0.302   0.254   3.431  0.1308  0.1444  0.2712
 1911SOL    HW1 6357   0.223   0.279   3.375 -0.9335 -1.0018  1.2158
 1911SOL    HW2 6358   0.330   0.333   3.486 -0.1582  0.6474 -0.2906
 1912SOL     OW 6359   2.594   1.157   3.584 -0.0855 -0.6013 -0.3474
 1912SOL    HW1 6360   2.496   1.162   3.604 -0.3777  0.7594 -1.8532
 1912SOL    HW2 6361   2.643   1.221   3.643  0.0859 -2.0654  1.1746
 1913SOL     OW 6362   4.263   1.202   0.546  0.4246  0.0996 -0.2198
 1913SOL    HW1 6363   4.246   1.177   0.451 -1.3629  1.2236 -0.2467
 1913SOL    HW2 6364   4.212   1.285   0.568  0.5907 -0.2772  1.7859
 1914SOL     OW 6365   3.276   3.632   0.834 -0.0957 -0.1056 -0.4669
 1914SOL    HW1 6366   3.187   3.622   0.789  0.4812  3.4691 -2.7708
 1914SOL    HW2 6367   3.263   3.672   0.925 -0.8461  0.5983 -0.8724
 1915SOL     OW 6368   0.809   3.748   3.642 -0.1145 -0.4544  0.1894
 1915SOL    HW1 6369   0.814   3.761   3.741  3.7823 -2.3102  0.4058
 1915SOL    HW2 6370   0.771   3.657   3.623 -1.5297  0.1698 -0.1422
 1916SOL     OW 6371   3.589   3.714   3.539  0.2374 -0.5493 -0.4514
 1916SOL    HW1 6372   3.643   3.680   3.616  1.4951 -0.7141 -1.3701
 1916SOL    HW2 6373   3.603   3.813   3.530 -1.3455 -0.1954  0.6123
 1917SOL     OW 6374   3.684   2.919   3.742  0.0842 -0.2157 -0.4999
 1917SOL    HW1 6375   3.747   2.903   3.818 -0.5303 -0.0814  0.0411
 1917SOL    HW2 6376   3.595   2.879   3.763  0.1129 -0.8287 -1.4644
 1918SOL     OW 6377   1.920   2.831   3.932  0.4806  0.0082  0.0584
 1918SOL    HW1 6378   1.877   2.764   3.871  2.1582 -1.6468  0.6266
 1918SOL    HW2 6379   1.927   2.919   3.884 -0.1352 -0.6829 -1.3676
 1919SOL     OW 6380   3.405   4.758   3.136 -0.0496 -0.3891 -0.3276
 1919SOL    HW1 6381   3.444   4.836   3.087 -0.5278 -0.1062 -0.2689
 1919SOL    HW2 6382   3.442   4.673   3.099  0.0390 -0.1539 -0.7838
 1920SOL     OW 6383   4.630   1.925   4.481 -0.0290  0.0258  0.4730
 1920SOL    HW1 6384   4.597   1.898   4.391 -0.9869 -1.6153  1.2792
 1920SOL    HW2 6385   4.555   1.965   4.534  0.5046  0.9048  0.5978
 1921SOL     OW 6386   0.455   1.991   1.555 -0.1012 -0.2433 -0.0146
 1921SOL    HW1 6387   0.370   2.043   1.566 -0.0248 -0.2076  0.4092
 1921SOL    HW2 6388   0.532   2.047   1.585  0.3964  0.7452 -2.7899
 1922SOL     OW 6389   2.802   0.899   0.595  0.4821  0.2676  0.1707
 1922SOL    HW1 6390   2.852   0.976   0.555 -0.5796  0.2955 -1.1899
 1922SOL    HW2 6391   2.804   0.822   0.531  1.9036 -1.0360  1.6942
 1923SOL     OW 6392   0.749   0.005   2.863  0.4537 -0.5644  0.6662
 1923SOL    HW1 6393   0.695   0.077   2.907  3.2320  1.2366  1.3876
 1923SOL    HW2 6394   0.807  -0.039   2.931  0.8395 -1.5586 -0.2732
 1924SOL     OW 6395   3.969   2.010   1.047  0.1193 -0.3437 -0.2630
 1924SOL    HW1 6396   3.991   1.960   0.964 -0.4454  0.6188 -1.0167
 1924SOL    HW2 6397   3.877   1.986   1.077 -0.7596  1.2934 -1.4832
 1925SOL     OW 6398   1.448   2.730   0.500 -0.1182  0.5069  0.3506
 1925SOL    HW1 6399   1.491   2.784   0.428  0.4211 -0.7829 -0.3299
 1925SOL    HW2 6400   1.452   2.780   0.587 -0.8860  2.1270 -0.5141
 1926SOL     OW 6401   1.351   4.027   2.891 -0.5659 -0.5359  0.1506
 1926SOL    HW1 6402   1.254   4.022   2.919 -1.2881  1.0566 -1.8621
 1926SOL    HW2 6403   1.360   3.993   2.798  0.9613 -1.1945  0.5125
 1927SOL     OW 6404   2.802   0.982   1.100 -0.4069 -0.2093 -0.1484
 1927SOL    HW1 6405   2.801   0.974   1.001  1.1556  3.5509 -0.6398
 1927SOL    HW2 6406   2.895   0.967   1.134 -1.1119 -2.4828  0.9710
 1928SOL     OW 6407   4.306   1.322   4.094 -0.2514  0.0605  0.1122
 1928SOL    HW1 6408   4.386   1.377   4.070  0.3502 -1.2880 -1.1180
 1928SOL    HW2 6409   4.249   1.373   4.159  0.7005  1.7582 -0.3152
 1929SOL     OW 6410   0.629   0.659   1.969 -0.3107  0.0073 -0.3183
 1929SOL    HW1 6411   0.649   0.676   1.873 -0.6179  0.5223 -0.2956
 1929SOL    HW2 6412   0.561   0.586   1.977  0.2577 -0.5394 -0.4610
 1930SOL     OW 6413   0.061   3.107   3.827  0.0310 -0.4311  0.6236
 1930SOL    HW1 6414   0.034   3.145   3.738 -3.6569  1.1430  2.2278
 1930SOL    HW2 6415   0.115   3.175   3.877 -2.2211  0.8342  1.4744
 1931SOL     OW 6416   1.995   1.117   3.041 -0.3759 -0.2482  0.4479
 1931SOL    HW1 6417   1.955   1.032   3.007  1.5600 -0.5111 -1.3935
 1931SOL    HW2 6418   1.953   1.194   2.993 -0.6915 -0.2933  0.6433
 1932SOL     OW 6419   3.434   0.633   0.469 -0.1237 -0.1409  0.1642
 1932SOL    HW1 6420   3.388   0.674   0.390 -0.1068 -0.7702 -0.1768
 1932SOL    HW2 6421   3.531   0.655   0.466 -0.4212  1.5019  1.0809
 1933SOL     OW 6422   3.656   3.892   0.867 -0.1770  0.1322  0.1535
 1933SOL    HW1 6423   3.576   3.952   0.879 -0.8947 -0.5020 -1.2070
 1933SOL    HW2 6424   3.735   3.947   0.843 -0.5674  0.6423  0.0055
 1934SOL     OW 6425   2.734   4.107   3.673 -0.2972 -0.5411  0.0326
 1934SOL    HW1 6426   2.754   4.169   3.597 -0.1210  0.4636  0.8713
 1934SOL    HW2 6427   2.754   4.013   3.646  2.4967  0.0451 -0.2808
 1935SOL     OW 6428   2.979   4.231   2.563 -0.5128  0.4833  0.2123
 1935SOL    HW1 6429   2.998   4.320   2.521 -0.0328  1.2447  1.9891
 1935SOL    HW2 6430   3.021   4.225   2.653  0.0403 -1.8280 -0.1178
 1936SOL     OW 6431   1.044   1.655   4.548 -0.1245  0.1466  0.7156
 1936SOL    HW1 6432   1.119   1.687   4.491 -0.1730  0.0333  0.5877
 1936SOL    HW2 6433   1.064   1.674   4.644 -1.7204  3.8643  0.4535
 1937SOL     OW 6434   1.641   2.446   4.020 -0.5099  0.0235  0.0449
 1937SOL    HW1 6435   1.690   2.360   4.004 -1.3528 -0.4322 -0.1825
 1937SOL    HW2 6436   1.671   2.486   4.106  1.9403  0.9676 -1.1543
 1938SOL     OW 6437   1.051   3.425   4.187  1.0172  0.0171 -0.0464
 1938SOL    HW1 6438   0.971   3.434   4.245  1.2700 -0.4668  0.3850
 1938SOL    HW2 6439   1.129   3.395   4.241  0.8732 -2.0247 -0.8699
 1939SOL     OW 6440   0.449   1.233   4.002 -0.3480  0.6733 -0.2526
 1939SOL    HW1 6441   0.428   1.202   3.910  1.5716  0.1413 -0.5548
 1939SOL    HW2 6442   0.460   1.154   4.063 -0.2169  0.9594  0.1016
 1940SOL     OW 6443   0.554   1.303   1.155 -0.4440 -0.0641  0.0781
 1940SOL    HW1 6444   0.602   1.263   1.077  0.7165 -0.2093  0.8255
 1940SOL    HW2 6445   0.622   1.336   1.222 -1.4005  0.4058  0.8432
 1941SOL     OW 6446   0.567   4.400   1.229  0.3593 -0.2487 -0.0120
 1941SOL    HW1 6447   0.550   4.456   1.148 -0.6583 -0.9888 -0.3309
 1941SOL    HW2 6448   0.634   4.445   1.288  0.4555  0.7129 -0.8419
 1942SOL     OW 6449   4.821   1.808   0.460  0.5784  0.2680 -0.0267
 1942SOL    HW1 6450   4.779   1.866   0.389 -0.0294 -0.3589 -0.1884
 1942SOL    HW2 6451   4.750   1.776   0.522  1.0494  0.4329  0.5990
 1943SOL     OW 6452   3.848   3.188   3.397 -0.1069  0.0348 -0.3331
 1943SOL    HW1 6453   3.861   3.089   3.390  0.6510 -0.0132  1.3321
 1943SOL    HW2 6454   3.929   3.230   3.438 -1.1198  1.1103  0.6523
 1944SOL     OW 6455   0.944   2.778   3.988  0.9645  0.2381  0.3956
 1944SOL    HW1 6456   0.914   2.806   4.079  1.5509 -0.4967  0.8305
 1944SOL    HW2 6457   0.869   2.731   3.941  0.7931  0.2302  0.6731
 1945SOL     OW 6458   0.925   4.551   0.684 -0.4259  0.4442 -0.0890
 1945SOL    HW1 6459   1.012   4.555   0.734 -0.2740 -2.3548  0.0596
 1945SOL    HW2 6460   0.863   4.622   0.718  0.7821  0.6257  1.8923
 1946SOL     OW 6461   4.829   4.516   3.934  0.1949  0.4875  1.1055
 1946SOL    HW1 6462   4.904   4.581   3.919  1.5908 -1.1088  0.8234
 1946SOL    HW2 6463   4.744   4.566   3.950  1.1823  2.3619  0.7859
 1947SOL     OW 6464   3.592   0.075   3.259 -0.3013 -0.0146 -0.3488
 1947SOL    HW1 6465   3.548   0.106   3.343  0.2649  0.2613 -0.1429
 1947SOL    HW2 6466   3.540   0.108   3.180 -0.4136  0.3869 -0.1136
 1948SOL     OW 6467   2.216   2.204   1.805 -0.3320  0.5146  0.1252
 1948SOL    HW1 6468   2.215   2.281   1.741  1.3138  1.8074  1.5319
 1948SOL    HW2 6469   2.187   2.121   1.758  0.2888  1.4959 -2.1491
 1949SOL     OW 6470   1.581   3.814   0.192 -0.0777 -0.4792  0.2341
 1949SOL    HW1 6471   1.585   3.800   0.291  0.0476  0.1369  0.3177
 1949SOL    HW2 6472   1.490   3.844   0.166 -0.0107 -0.3041  0.2045
 1950SOL     OW 6473   0.152   1.277   2.431  0.2261  0.0504 -0.0509
 1950SOL    HW1 6474   0.165   1.179   2.449 -0.3544  0.0971  0.6668
 1950SOL    HW2 6475   0.169   1.328   2.515  0.2710  0.5464 -0.3597
 1951SOL     OW 6476   4.125   0.654   0.099 -0.3971  0.2608  0.0850
 1951SOL    HW1 6477   4.031   0.635   0.129 -0.0262  2.1866  2.8797
 1951SOL    HW2 6478   4.180   0.571   0.109 -0.6207  0.3652  4.0394
 1952SOL     OW 6479   3.560   0.203   0.137  0.1583  0.4890  0.5282
 1952SOL    HW1 6480   3.560   0.205   0.237  0.3665  0.6778  0.5252
 1952SOL    HW2 6481   3.599   0.117   0.105  1.4024  0.9984  0.6045
 1953SOL     OW 6482   0.693   3.409   1.359  0.3913 -0.3330  0.3559
 1953SOL    HW1 6483   0.618   3.445   1.303  1.2019  0.2678 -0.3768
 1953SOL    HW2 6484   0.719   3.477   1.427 -0.4521 -0.9811  1.3423
 1954SOL     OW 6485   2.648   1.729   4.002  0.2331  0.3974  0.3965
 1954SOL    HW1 6486   2.628   1.648   4.057 -0.7856  0.7097  0.5185
 1954SOL    HW2 6487   2.691   1.701   3.916 -0.8733 -0.3761  0.0605
 1955SOL     OW 6488   0.438   1.015   4.157  0.3524 -0.2657  0.1042
 1955SOL    HW1 6489   0.342   0.988   4.166  0.5986 -1.2066 -0.0294
 1955SOL    HW2 6490   0.495   0.952   4.209  0.8842  0.4443  0.3937
 1956SOL     OW 6491   0.818   2.424   1.523  0.2799 -0.5774 -0.7069
 1956SOL    HW1 6492   0.795   2.435   1.619  0.7585 -0.5632 -0.5938
 1956SOL    HW2 6493   0.740   2.453   1.467  0.0021 -0.5815 -0.3294
 1957SOL     OW 6494   0.410   1.663   0.867 -0.7359 -0.0067  0.1387
 1957SOL    HW1 6495   0.334   1.682   0.804  1.0305 -1.2473 -2.5779
 1957SOL    HW2 6496   0.411   1.565   0.888  0.1541 -0.0203  0.0543
 1958SOL     OW 6497   3.822   0.060   1.359 -0.1452 -0.6277  0.1856
 1958SOL    HW1 6498   3.723   0.063   1.375 -0.0430 -0.6934  0.8633
 1958SOL    HW2 6499   3.870   0.072   1.446  0.4429 -0.7818 -0.1130
 1959SOL     OW 6500   4.551   1.144   1.662 -0.6601 -0.4234  0.4096
 1959SOL    HW1 6501   4.603   1.185   1.587 -1.2467  0.7232  0.6009
 1959SOL    HW2 6502   4.575   1.048   1.671  1.5350  0.1031  0.6092
 1960SOL     OW 6503   1.387   2.849   3.599  0.4235  0.2479  0.2294
 1960SOL    HW1 6504   1.395   2.946   3.622 -2.9174  0.6477  0.1302
 1960SOL    HW2 6505   1.431   2.794   3.670  2.3997  1.7745  0.2719
 1961SOL     OW 6506   1.340   1.770   4.126  0.2965 -1.1899 -0.0257
 1961SOL    HW1 6507   1.392   1.845   4.085 -0.4072 -1.1830 -0.9325
 1961SOL    HW2 6508   1.373   1.683   4.090  0.8458 -1.3085  0.7302
 1962SOL     OW 6509   0.244   3.892   1.671  0.7071  0.2416  0.3966
 1962SOL    HW1 6510   0.156   3.939   1.671  0.8102  0.4382  0.5170
 1962SOL    HW2 6511   0.291   3.908   1.584 -0.7170 -2.4317 -0.9798
 1963SOL     OW 6512   2.773   2.305   0.436 -0.6890  0.5271  0.3093
 1963SOL    HW1 6513   2.679   2.301   0.468 -0.2141  0.2483  1.7178
 1963SOL    HW2 6514   2.777   2.361   0.353 -2.2244 -0.2446 -0.3328
 1964SOL     OW 6515   1.066   4.908   1.956 -0.4627  0.4079  0.1553
 1964SOL    HW1 6516   1.020   4.910   1.867 -0.8531  0.8313  0.3644
 1964SOL    HW2 6517   1.139   4.977   1.958  0.0700 -0.1404 -0.1121
 1965SOL     OW 6518   1.863   2.654   1.896  0.0843  0.2282 -0.1490
 1965SOL    HW1 6519   1.923   2.576   1.884 -0.2045 -0.2890  1.4971
 1965SOL    HW2 6520   1.768   2.625   1.883 -0.0357  0.2512  0.6417
 1966SOL     OW 6521   2.268   2.912   4.358 -0.1275 -0.3282 -0.8860
 1966SOL    HW1 6522   2.368   2.915   4.355 -0.1595  0.8699 -1.6733
 1966SOL    HW2 6523   2.233   2.991   4.409 -0.6508 -1.9938  1.4787
 1967SOL     OW 6524   0.158   1.033   3.088 -0.6370  0.5531 -0.0852
 1967SOL    HW1 6525   0.214   1.039   3.171 -0.7286  0.6153 -0.0279
 1967SOL    HW2 6526   0.191   0.958   3.031 -0.0565  1.0158 -0.3750
 1968SOL     OW 6527   0.985   0.116   1.437  0.0347 -0.6785  0.0369
 1968SOL    HW1 6528   0.966   0.205   1.395  0.8490  0.3442  1.7055
 1968SOL    HW2 6529   1.063   0.074   1.391  1.2344  0.6494  0.7444
 1969SOL     OW 6530   4.680   0.396   3.287 -0.0441 -0.1939  0.4904
 1969SOL    HW1 6531   4.759   0.378   3.346  0.0708  2.1343  1.1502
 1969SOL    HW2 6532   4.624   0.468   3.328 -1.2442 -0.1497 -1.1336
 1970SOL     OW 6533   0.638   1.006   1.641  0.0686 -0.0685  0.4932
 1970SOL    HW1 6534   0.606   1.091   1.683 -1.4938 -0.7540  0.7546
 1970SOL    HW2 6535   0.621   1.009   1.542  0.0612 -0.0738  0.4944
 1971SOL     OW 6536   1.348   2.614   1.232  0.2764 -0.4525 -0.1647
 1971SOL    HW1 6537   1.253   2.636   1.208  1.1467  1.2663 -2.4429
 1971SOL    HW2 6538   1.378   2.673   1.307 -0.1518 -0.3355 -0.0833
 1972SOL     OW 6539   2.708   4.062   2.684 -0.2149  0.8785 -0.0518
 1972SOL    HW1 6540   2.770   4.073   2.762  0.3077  1.1764 -0.5022
 1972SOL    HW2 6541   2.706   4.147   2.631  0.3331  0.3123 -1.0143
 1973SOL     OW 6542   3.733   2.054   4.345  0.3603  0.3001  0.0427
 1973SOL    HW1 6543   3.810   2.035   4.405 -0.5064  0.1623  1.1508
 1973SOL    HW2 6544   3.697   1.968   4.308 -0.1778  0.2245  0.7204
 1974SOL     OW 6545   4.079   0.800   0.379 -0.3232 -0.5124 -0.0350
 1974SOL    HW1 6546   4.124   0.771   0.295 -0.3587 -1.2183  0.1843
 1974SOL    HW2 6547   4.145   0.848   0.437 -0.1149 -0.6599 -0.1498
 1975SOL     OW 6548   0.899   4.221   2.443 -0.4832  0.2881 -0.1592
 1975SOL    HW1 6549   0.951   4.144   2.479 -0.0824  0.2319 -0.8444
 1975SOL    HW2 6550   0.804   4.192   2.429 -0.8305  0.5109  1.4787
 1976SOL     OW 6551   2.585   2.126   0.236 -0.1893  0.8982  0.0038
 1976SOL    HW1 6552   2.554   2.161   0.324  0.8492  1.8460  0.0202
 1976SOL    HW2 6553   2.672   2.170   0.211  2.0192 -2.6896  0.6837
 1977SOL     OW 6554   2.260   2.566   3.825 -0.2485  0.2023  0.4049
 1977SOL    HW1 6555   2.346   2.552   3.874  0.1106 -0.4034 -0.3704
 1977SOL    HW2 6556   2.227   2.479   3.790 -1.2837  0.4055  0.8436
 1978SOL     OW 6557   2.894   4.188   0.051 -0.0692  0.4563 -0.0267
 1978SOL    HW1 6558   2.817   4.128   0.076  1.1651 -1.5721 -0.8351
 1978SOL    HW2 6559   2.912   4.251   0.127 -0.1673 -1.5675  1.8010
 1979SOL     OW 6560   2.434   2.244   1.988  0.0757  0.2540  0.0717
 1979SOL    HW1 6561   2.370   2.252   1.912 -0.7401  0.1207  0.7264
 1979SOL    HW2 6562   2.417   2.318   2.053  0.6842  0.2967  0.1861
 1980SOL     OW 6563   2.765   3.756   0.643 -0.1209 -0.4312  0.0235
 1980SOL    HW1 6564   2.746   3.753   0.741  0.6183 -2.4697  0.1687
 1980SOL    HW2 6565   2.680   3.769   0.593 -0.3467  2.1116  0.9203
 1981SOL     OW 6566   0.698   0.663   2.236 -0.5541 -0.0973 -0.2175
 1981SOL    HW1 6567   0.662   0.584   2.286  0.2921 -0.5571 -0.3064
 1981SOL    HW2 6568   0.681   0.650   2.138  0.1826 -0.5134 -0.3013
 1982SOL     OW 6569   3.217   4.296   2.845 -0.4780  0.5102  0.2233
 1982SOL    HW1 6570   3.235   4.371   2.780  1.2156 -0.6561 -0.7221
 1982SOL    HW2 6571   3.204   4.334   2.937 -2.5462  2.1733 -0.6648
 1983SOL     OW 6572   3.554   4.224   4.731  0.7486 -0.6122 -0.6108
 1983SOL    HW1 6573   3.505   4.250   4.647  0.7400  2.9285  0.3069
 1983SOL    HW2 6574   3.488   4.188   4.797  0.0369  0.2896 -0.7983
 1984SOL     OW 6575   0.288   4.092   1.053  0.1710 -0.6838 -0.6426
 1984SOL    HW1 6576   0.374   4.122   1.094  0.8828 -1.5418 -1.4625
 1984SOL    HW2 6577   0.305   4.012   0.995 -1.3473 -1.4325 -0.0820
 1985SOL     OW 6578   1.531   0.797   4.866 -0.0790 -0.1914  0.2117
 1985SOL    HW1 6579   1.487   0.886   4.857  0.7796  0.3105  0.7677
 1985SOL    HW2 6580   1.493   0.749   4.945  1.4442  0.9345  1.7107
 1986SOL     OW 6581   0.093   4.216   2.598  0.4080  0.7509  0.4934
 1986SOL    HW1 6582   0.028   4.145   2.570  1.2618  0.2076 -0.1888
 1986SOL    HW2 6583   0.078   4.240   2.693 -1.2525  1.1580  0.1621
 1987SOL     OW 6584   1.419   2.188   0.009  0.5554 -0.9813  0.4530
 1987SOL    HW1 6585   1.467   2.102  -0.011 -0.3229 -1.1043 -1.4326
 1987SOL    HW2 6586   1.446   2.257  -0.059  1.2807  0.2851  1.9676
 1988SOL     OW 6587   2.731   3.074   0.819  0.6439 -0.3867  0.1933
 1988SOL    HW1 6588   2.738   3.132   0.738  0.2708 -1.2475 -0.4729
 1988SOL    HW2 6589   2.822   3.054   0.854  0.7689  0.8272  0.6157
 1989SOL     OW 6590   0.270   0.672   4.105 -0.2234  0.4324 -0.1447
 1989SOL    HW1 6591   0.333   0.654   4.180  1.2326 -1.5522 -1.7215
 1989SOL    HW2 6592   0.319   0.718   4.031 -0.8712 -0.2627 -1.0242
 1990SOL     OW 6593   3.832   0.605   3.967 -0.4266  0.2556  0.3808
 1990SOL    HW1 6594   3.916   0.635   3.920 -1.5946  1.9210 -0.7642
 1990SOL    HW2 6595   3.786   0.684   4.006 -1.6355 -0.5851  0.7103
 1991SOL     OW 6596   1.086   0.058   0.084 -0.6208  0.5515  0.2214
 1991SOL    HW1 6597   1.087  -0.017   0.017 -0.9982 -1.1369  1.9933
 1991SOL    HW2 6598   1.179   0.081   0.110 -0.4578 -2.1670  2.5493
 1992SOL     OW 6599   3.526   0.579   2.430 -0.5419  0.1310  1.0514
 1992SOL    HW1 6600   3.558   0.674   2.439 -0.8224  0.4444 -0.7516
 1992SOL    HW2 6601   3.426   0.577   2.437 -0.8480  0.4867 -1.7419
 1993SOL     OW 6602   3.420   2.124   0.437 -0.1047  0.2989 -0.3010
 1993SOL    HW1 6603   3.352   2.191   0.466  0.8479  0.4926  1.7124
 1993SOL    HW2 6604   3.457   2.078   0.518  1.9008 -0.0260 -1.3377
 1994SOL     OW 6605   0.567   3.595   0.120 -0.3859 -0.2547 -0.0175
 1994SOL    HW1 6606   0.570   3.577   0.021  1.5279  0.4527 -0.1193
 1994SOL    HW2 6607   0.652   3.639   0.149 -1.2232  0.2373  1.8339
 1995SOL     OW 6608   3.572   0.688   1.231  0.1735  0.3271  0.0198
 1995SOL    HW1 6609   3.611   0.701   1.140  0.6803  3.1718  0.5314
 1995SOL    HW2 6610   3.492   0.628   1.225  2.3052 -2.6206 -1.6457
 1996SOL     OW 6611   0.648   0.061   4.597 -0.3180  0.4287 -0.0599
 1996SOL    HW1 6612   0.553   0.034   4.614  0.2805 -1.1983  1.0052
 1996SOL    HW2 6613   0.676   0.129   4.665 -0.9866  1.6851 -0.9989
 1997SOL     OW 6614   4.121   4.390   3.075 -0.6024  0.1917 -0.5872
 1997SOL    HW1 6615   4.079   4.305   3.107  0.5949 -0.8415 -1.6664
 1997SOL    HW2 6616   4.125   4.455   3.151 -3.0886 -0.0534 -0.1540
 1998SOL     OW 6617   3.265   2.432   2.325  0.2923 -0.0881 -0.1286
 1998SOL    HW1 6618   3.264   2.348   2.379 -1.1356  0.0958  0.1621
 1998SOL    HW2 6619   3.219   2.417   2.238  1.3555  0.0005 -0.7163
 1999SOL     OW 6620   2.988   3.403   0.608 -0.2594  0.4252 -0.2361
 1999SOL    HW1 6621   3.037   3.486   0.636 -0.5594  0.0603  1.4326
 1999SOL    HW2 6622   3.012   3.328   0.669 -1.9671 -0.0714 -0.1363
 2000SOL     OW 6623   0.108   2.345   2.317 -0.9582  0.0450  0.0691
 2000SOL    HW1 6624   0.190   2.309   2.361 -1.0040 -1.6109 -1.1237
 2000SOL    HW2 6625   0.035   2.356   2.386 -0.6751 -1.3809  0.6179
 2001SOL     OW 6626   0.706   3.327   2.538 -0.0587 -0.4389  0.1708
 2001SOL    HW1 6627   0.775   3.399   2.525  0.3751 -0.7169  0.9127
 2001SOL    HW2 6628   0.673   3.296   2.448 -0.1694  0.6017 -0.1573
 2002SOL     OW 6629   3.140   1.235   3.237 -0.6813  0.1712  0.1972
 2002SOL    HW1 6630   3.078   1.217   3.313 -1.3421  0.0331 -0.3649
 2002SOL    HW2 6631   3.208   1.161   3.231 -1.6052 -0.6599 -0.3163
 2003SOL     OW 6632   3.590   4.136   2.100  0.4927  0.0001 -0.0806
 2003SOL    HW1 6633   3.634   4.075   2.166  2.9624  1.6285 -0.0971
 2003SOL    HW2 6634   3.569   4.084   2.017 -2.3529 -2.0038  1.6922
 2004SOL     OW 6635   3.670   1.344   1.387 -0.9541 -0.3267  0.1067
 2004SOL    HW1 6636   3.662   1.384   1.295 -1.4916 -1.5646 -0.4137
 2004SOL    HW2 6637   3.715   1.255   1.380 -0.7621 -0.3113  1.0878
 2005SOL     OW 6638   0.404   3.290   4.250 -0.3236  0.6191 -0.5584
 2005SOL    HW1 6639   0.304   3.286   4.240 -0.8328  4.3121  1.2963
 2005SOL    HW2 6640   0.427   3.322   4.342  2.6396 -0.3642 -0.8561
 2006SOL     OW 6641   3.481   4.147   2.815 -0.1403 -0.5237 -0.2595
 2006SOL    HW1 6642   3.537   4.085   2.871 -0.0194  0.3385  0.6047
 2006SOL    HW2 6643   3.405   4.182   2.870  1.3019  2.1847  0.1822
 2007SOL     OW 6644   1.687   0.449   2.850 -0.0965  0.1560  0.2220
 2007SOL    HW1 6645   1.763   0.384   2.850 -0.1270  0.0275  2.4624
 2007SOL    HW2 6646   1.619   0.421   2.783  0.4689 -1.4422  0.2655
 2008SOL     OW 6647   2.391   4.882   0.652  0.9817 -0.4335 -0.1904
 2008SOL    HW1 6648   2.390   4.964   0.711 -0.6776  0.6837 -1.6567
 2008SOL    HW2 6649   2.375   4.801   0.708 -1.2257  0.6517  0.8773
 2009SOL     OW 6650   0.593   2.813   4.239 -0.1844 -0.1238 -0.5094
 2009SOL    HW1 6651   0.526   2.882   4.212  0.3565  1.0885  1.0751
 2009SOL    HW2 6652   0.550   2.748   4.302 -0.6019 -1.0986 -1.7423
 2010SOL     OW 6653   1.385   3.984   2.148  0.2556  0.0700  0.3237
 2010SOL    HW1 6654   1.404   4.082   2.158  0.7583  0.1655 -1.2677
 2010SOL    HW2 6655   1.453   3.943   2.087 -1.5515 -0.6782 -1.3083
 2011SOL     OW 6656   0.840   3.598   0.837 -0.0938 -0.0279 -0.6004
 2011SOL    HW1 6657   0.862   3.554   0.924 -1.6690 -0.7520 -0.5296
 2011SOL    HW2 6658   0.875   3.543   0.761  2.7186  1.4170 -0.4711
 2012SOL     OW 6659   2.183   2.160   1.426 -0.4886 -0.9250 -0.0139
 2012SOL    HW1 6660   2.194   2.133   1.331 -1.6920 -0.3652 -0.3274
 2012SOL    HW2 6661   2.248   2.232   1.449  0.4412 -1.7087 -0.1270
 2013SOL     OW 6662   2.914   0.504   3.960 -0.1522  0.0403 -0.4366
 2013SOL    HW1 6663   2.924   0.602   3.942 -3.2340  0.2782 -1.5592
 2013SOL    HW2 6664   2.947   0.452   3.881 -0.3527  0.2976 -0.6912
 2014SOL     OW 6665   2.406   1.061   4.313 -0.1613 -0.5456 -0.4142
 2014SOL    HW1 6666   2.373   0.992   4.250 -0.4826 -0.8764  0.1076
 2014SOL    HW2 6667   2.352   1.058   4.397 -1.1806  1.3287 -0.9409
 2015SOL     OW 6668   4.336   1.997   1.815  0.1935 -1.0050  0.6606
 2015SOL    HW1 6669   4.260   2.020   1.755  0.3273 -0.5890  0.6514
 2015SOL    HW2 6670   4.382   2.081   1.845  0.9527 -1.2800  0.2761
 2016SOL     OW 6671   0.790   0.953   2.871 -0.1653 -0.5209  0.4644
 2016SOL    HW1 6672   0.864   0.887   2.885 -0.7912 -1.0808  1.2647
 2016SOL    HW2 6673   0.739   0.965   2.957 -0.8415  0.0461 -0.0005
 2017SOL     OW 6674   4.672   1.629   1.742 -0.4964 -0.3780  0.2862
 2017SOL    HW1 6675   4.683   1.579   1.656  1.8005 -1.0344  0.8841
 2017SOL    HW2 6676   4.583   1.674   1.743 -0.2421  0.4642 -2.8630
 2018SOL     OW 6677   1.208   3.296   4.373 -0.1313 -0.0775  0.2527
 2018SOL    HW1 6678   1.232   3.375   4.428 -2.2664  1.3592 -0.7295
 2018SOL    HW2 6679   1.148   3.235   4.426  0.0938 -0.1374  0.4376
 2019SOL     OW 6680   2.595   1.494   1.861 -0.5479 -0.5378  0.4518
 2019SOL    HW1 6681   2.519   1.520   1.801  1.7298  0.2259 -2.3478
 2019SOL    HW2 6682   2.675   1.550   1.838  0.8266 -1.0831  3.4956
 2020SOL     OW 6683   1.820   3.688   1.030  0.0391  0.2310 -0.5764
 2020SOL    HW1 6684   1.817   3.777   1.076  0.8381 -0.0665  0.0930
 2020SOL    HW2 6685   1.903   3.683   0.974  1.8004 -1.2526  1.9476
 2021SOL     OW 6686   0.531   2.204   4.070  0.2113  0.2117  0.8937
 2021SOL    HW1 6687   0.433   2.208   4.050  0.3455 -0.3353  0.0802
 2021SOL    HW2 6688   0.565   2.112   4.050  1.0582  0.6236  0.3910
 2022SOL     OW 6689   1.070   0.953   3.414  0.3504  0.0758 -0.1718
 2022SOL    HW1 6690   1.150   1.006   3.387  0.2174 -0.0509 -0.8229
 2022SOL    HW2 6691   1.076   0.930   3.511  1.6469 -0.8846 -0.4646
 2023SOL     OW 6692   4.250   1.426   2.821  0.0179  0.0422 -0.0821
 2023SOL    HW1 6693   4.160   1.410   2.779  0.1438 -1.7489  0.2315
 2023SOL    HW2 6694   4.322   1.411   2.754  0.1269 -0.3396  0.1118
 2024SOL     OW 6695   4.258   3.262   0.510  0.4496 -0.2584 -0.7080
 2024SOL    HW1 6696   4.194   3.192   0.479 -0.3490  0.5241 -0.8361
 2024SOL    HW2 6697   4.279   3.325   0.435  0.1714  0.3891 -0.2484
 2025SOL     OW 6698   4.326   3.829   4.753  0.2177 -0.2967  0.1350
 2025SOL    HW1 6699   4.277   3.752   4.712 -0.3338  0.0065  0.2112
 2025SOL    HW2 6700   4.400   3.858   4.692  0.6395 -1.0880  0.2532
 2026SOL     OW 6701   4.020   2.564   1.710  0.5044 -0.3070 -0.4152
 2026SOL    HW1 6702   3.990   2.480   1.755  0.6058  0.4361  1.1061
 2026SOL    HW2 6703   3.981   2.568   1.618 -3.1029  0.0066  0.9886
 2027SOL     OW 6704   3.500   0.114   4.298 -0.1539  0.6826 -0.3808
 2027SOL    HW1 6705   3.511   0.214   4.301  0.5495  0.6220 -0.8004
 2027SOL    HW2 6706   3.571   0.074   4.241 -0.0873 -0.1205  0.2463
 2028SOL     OW 6707   4.848   1.065   1.035  0.0091  0.1530 -0.6666
 2028SOL    HW1 6708   4.906   0.998   0.990  0.3955 -0.7695  1.0886
 2028SOL    HW2 6709   4.904   1.131   1.085 -0.4040 -0.0302  0.0643
 2029SOL     OW 6710   4.644   2.788   4.037 -0.0988 -0.1869 -0.5997
 2029SOL    HW1 6711   4.612   2.751   3.950 -0.0635 -2.4055  0.2698
 2029SOL    HW2 6712   4.629   2.721   4.109  2.7674  0.2825  0.5819
 2030SOL     OW 6713   4.520   3.191   0.519 -0.2462 -0.0150 -0.4445
 2030SOL    HW1 6714   4.425   3.221   0.521 -0.1782  0.2167 -0.6526
 2030SOL    HW2 6715   4.558   3.207   0.428 -0.0112 -0.1194 -0.3662
 2031SOL     OW 6716   1.122   1.423   4.181 -0.1159  0.3818  0.1478
 2031SOL    HW1 6717   1.141   1.436   4.083  3.1241 -0.6490  0.4987
 2031SOL    HW2 6718   1.039   1.368   4.192 -0.9311  1.0862 -1.9699
 2032SOL     OW 6719   4.511   2.615   0.942 -0.6137 -0.2369 -0.2711
 2032SOL    HW1 6720   4.473   2.647   1.029  0.4238  0.8588 -0.1820
 2032SOL    HW2 6721   4.593   2.668   0.921 -1.0820 -0.2015 -2.1426
 2033SOL     OW 6722   3.414   1.844   3.285 -0.3817  0.1282  0.2851
 2033SOL    HW1 6723   3.442   1.935   3.316  0.0922  0.1875 -0.3022
 2033SOL    HW2 6724   3.486   1.778   3.307 -1.2029 -0.3304  1.7432
 2034SOL     OW 6725   0.715   1.793   2.533 -0.1967  0.2337 -0.3699
 2034SOL    HW1 6726   0.755   1.711   2.575 -1.3647 -0.2540 -0.1595
 2034SOL    HW2 6727   0.667   1.846   2.603  1.2095  1.5227 -0.3581
 2035SOL     OW 6728   2.503   4.425   0.704  0.0895  0.5390  0.8371
 2035SOL    HW1 6729   2.597   4.456   0.686 -0.5226  1.5730 -0.8083
 2035SOL    HW2 6730   2.491   4.332   0.668 -0.3002  1.5167 -1.7610
 2036SOL     OW 6731   2.556   1.079   4.733 -0.3529 -0.4246 -0.5250
 2036SOL    HW1 6732   2.502   1.154   4.694  1.0866  0.2972 -1.2116
 2036SOL    HW2 6733   2.496   1.019   4.786 -1.8577  0.1988 -1.4534
 2037SOL     OW 6734   2.280   2.831   4.704 -0.2614 -0.0649 -0.3627
 2037SOL    HW1 6735   2.316   2.922   4.723  0.8267 -0.8014  1.3241
 2037SOL    HW2 6736   2.181   2.830   4.721 -0.5810  1.1561 -1.9121
 2038SOL     OW 6737   0.546   2.378   0.199 -0.2131 -0.1864  0.1709
 2038SOL    HW1 6738   0.537   2.477   0.196  1.0802  0.0217 -4.6139
 2038SOL    HW2 6739   0.641   2.354   0.220 -0.0422 -0.2658 -0.6395
 2039SOL     OW 6740   3.616   2.786   3.067  0.8146 -0.0058  0.1476
 2039SOL    HW1 6741   3.536   2.781   3.007 -0.4853 -0.7642  1.8574
 2039SOL    HW2 6742   3.693   2.738   3.024 -0.0965 -0.6167 -0.8607
 2040SOL     OW 6743   3.580   4.134   1.686  0.7847 -0.0883 -0.6054
 2040SOL    HW1 6744   3.586   4.196   1.608  1.1192  3.4831  2.0248
 2040SOL    HW2 6745   3.654   4.155   1.750 -1.8105  0.0926  2.5873
 2041SOL     OW 6746   3.864   1.619   2.985 -0.5327  0.0259 -0.1493
 2041SOL    HW1 6747   3.946   1.651   2.937 -0.4871  1.0847  0.5849
 2041SOL    HW2 6748   3.892   1.572   3.069 -0.6717  0.0993 -0.0624
 2042SOL     OW 6749   3.441   0.708   1.621 -0.1772 -0.3541 -0.1592
 2042SOL    HW1 6750   3.383   0.719   1.540  1.3709  1.7652 -1.0907
 2042SOL    HW2 6751   3.530   0.751   1.604  0.4210 -0.3876  2.4733
 2043SOL     OW 6752   3.762   2.359   0.830 -0.2892 -0.1962 -1.0511
 2043SOL    HW1 6753   3.664   2.345   0.816 -0.8273  1.4458  0.7826
 2043SOL    HW2 6754   3.789   2.323   0.919  0.3693  1.0135 -0.7379
 2044SOL     OW 6755   2.515   1.960   2.847 -0.4861  0.4294 -0.5444
 2044SOL    HW1 6756   2.542   1.947   2.942 -0.0907  0.2786 -0.6782
 2044SOL    HW2 6757   2.427   2.009   2.844 -2.1718 -2.3350 -0.0027
 2045SOL     OW 6758   3.236   3.766   1.076  0.1081  0.2186  0.1758
 2045SOL    HW1 6759   3.290   3.771   1.161  0.5364 -0.2202 -0.0677
 2045SOL    HW2 6760   3.232   3.857   1.035  0.9617  0.2032  0.0260
 2046SOL     OW 6761   1.226   2.540   3.309 -0.1630  0.0286 -0.1090
 2046SOL    HW1 6762   1.199   2.452   3.348  2.0199 -0.5261  0.2969
 2046SOL    HW2 6763   1.183   2.614   3.360 -0.3221 -0.7728  0.9653
 2047SOL     OW 6764   1.224   0.212   2.015  0.0378  0.2419 -0.3085
 2047SOL    HW1 6765   1.318   0.211   2.049 -0.3005 -0.9975  0.6462
 2047SOL    HW2 6766   1.169   0.273   2.073  0.0756  0.3538 -0.3891
 2048SOL     OW 6767   4.497   0.662   1.737  0.1906  0.5672 -0.1309
 2048SOL    HW1 6768   4.537   0.588   1.792  0.2096  1.8795  1.7060
 2048SOL    HW2 6769   4.398   0.664   1.752  0.0955  0.4717 -0.7373
 2049SOL     OW 6770   0.264   0.690   0.887 -0.1983  0.7996 -0.1477
 2049SOL    HW1 6771   0.297   0.614   0.943 -1.1652 -1.1599 -2.0859
 2049SOL    HW2 6772   0.339   0.728   0.833  0.5650  2.1739  1.7763
 2050SOL     OW 6773   1.319   4.186   3.835 -0.7078  0.0905  0.2053
 2050SOL    HW1 6774   1.381   4.179   3.757  0.4885 -2.0189  1.2577
 2050SOL    HW2 6775   1.338   4.270   3.886  0.6091 -0.0262 -0.0619
 2051SOL     OW 6776   4.394   0.897   4.195  0.0032 -0.0557 -0.6844
 2051SOL    HW1 6777   4.393   0.992   4.227  1.0720  0.5193 -2.2284
 2051SOL    HW2 6778   4.483   0.876   4.156 -0.7347 -1.1562 -1.8716
 2052SOL     OW 6779   3.999   2.378   0.672 -0.5418 -0.3842 -0.2865
 2052SOL    HW1 6780   3.903   2.361   0.694 -0.6977  0.9887  0.2189
 2052SOL    HW2 6781   4.006   2.458   0.612  0.2071 -1.3300 -1.5137
 2053SOL     OW 6782   1.532   2.040   3.596  0.0031  0.1515 -0.2951
 2053SOL    HW1 6783   1.534   1.941   3.610  2.3909 -0.3684 -3.1719
 2053SOL    HW2 6784   1.501   2.059   3.502 -0.7732  2.2014  0.3175
 2054SOL     OW 6785   4.737   2.877   0.003 -0.0534 -0.1080  0.1592
 2054SOL    HW1 6786   4.713   2.782   0.023 -1.7383  0.1813 -0.3211
 2054SOL    HW2 6787   4.749   2.927   0.089  0.1358 -0.5814  0.4136
 2055SOL     OW 6788   0.217   1.680   1.106 -0.0590  0.6593 -0.5509
 2055SOL    HW1 6789   0.316   1.694   1.104 -0.0951  1.2004  0.5434
 2055SOL    HW2 6790   0.173   1.762   1.143 -0.7373 -0.3458  0.9480
 2056SOL     OW 6791   1.354   3.067   1.109  0.1047 -0.2804 -0.3279
 2056SOL    HW1 6792   1.310   3.120   1.037 -3.0598 -0.8570  1.0267
 2056SOL    HW2 6793   1.346   2.969   1.089 -0.4652 -0.4348  0.5910
 2057SOL     OW 6794   0.994   0.794   2.070 -0.3011  0.5385  0.7519
 2057SOL    HW1 6795   1.046   0.851   2.006 -0.7869  2.8554  2.2993
 2057SOL    HW2 6796   1.057   0.743   2.129  0.1369 -0.6236 -0.6486
 2058SOL     OW 6797   4.597   3.153   0.256  0.2200  0.3062 -0.3832
 2058SOL    HW1 6798   4.535   3.168   0.180 -3.0203 -0.2119  1.9434
 2058SOL    HW2 6799   4.593   3.056   0.283 -0.7026  0.9110  1.9083
 2059SOL     OW 6800   2.980   1.468   2.236  1.1844 -0.4699 -0.0404
 2059SOL    HW1 6801   2.883   1.458   2.213  1.9484 -3.3745 -2.5316
 2059SOL    HW2 6802   3.032   1.487   2.153  2.9193  0.1562  1.1319
 2060SOL     OW 6803   3.732   0.928   0.737  0.4748 -0.0165 -0.2777
 2060SOL    HW1 6804   3.760   0.846   0.788  1.1236  0.1850 -0.3110
 2060SOL    HW2 6805   3.632   0.936   0.742  0.3035 -1.3169 -1.0388
 2061SOL     OW 6806   0.507   4.675   2.303  0.3446  0.3657  0.9427
 2061SOL    HW1 6807   0.528   4.637   2.213  1.9013  0.7815  1.1084
 2061SOL    HW2 6808   0.504   4.601   2.370 -0.3026  0.1162  0.6449
 2062SOL     OW 6809   0.925   3.990   2.581  0.1210  0.0847  0.0139
 2062SOL    HW1 6810   0.876   4.014   2.665 -1.4498 -1.3372 -0.4440
 2062SOL    HW2 6811   0.883   3.909   2.539  1.2771  0.3565 -1.8049
 2063SOL     OW 6812   4.569   0.514   4.898  0.1755 -0.2312 -0.2133
 2063SOL    HW1 6813   4.638   0.570   4.851  0.6147 -0.7202 -0.1586
 2063SOL    HW2 6814   4.615   0.453   4.963 -0.4028  0.2156  0.6248
 2064SOL     OW 6815   3.477   0.541   3.548  0.5459  0.2610  0.2656
 2064SOL    HW1 6816   3.401   0.534   3.613  0.8684 -0.3722  0.5796
 2064SOL    HW2 6817   3.559   0.571   3.596  0.7086  0.0988  0.0893
 2065SOL     OW 6818   2.805   1.760   2.849 -0.1434 -0.0729  0.4272
 2065SOL    HW1 6819   2.885   1.751   2.789  0.5098 -0.3549  1.3226
 2065SOL    HW2 6820   2.722   1.739   2.797  0.2919  0.8298 -0.6832
 2066SOL     OW 6821   2.038   0.041   0.397  0.1959 -0.1467 -0.1983
 2066SOL    HW1 6822   2.117   0.099   0.418  1.0659 -0.9490 -1.1581
 2066SOL    HW2 6823   1.983   0.029   0.480  2.9979 -2.4473  1.4988
 2067SOL     OW 6824   3.614   1.544   1.833  0.4649  0.0628 -0.1317
 2067SOL    HW1 6825   3.694   1.585   1.877  0.0706 -0.1465  0.8009
 2067SOL    HW2 6826   3.644   1.465   1.779  0.8408 -0.3067  0.5972
 2068SOL     OW 6827   2.146   1.573   1.957 -0.4015  0.1968 -0.0330
 2068SOL    HW1 6828   2.213   1.503   1.980 -0.6864 -1.0217 -2.6643
 2068SOL    HW2 6829   2.182   1.663   1.984  1.8493 -0.5240 -0.4319
 2069SOL     OW 6830   2.599   1.407   1.294 -0.3664  0.2257 -0.6441
 2069SOL    HW1 6831   2.620   1.422   1.391 -0.8726 -0.9515 -0.3266
 2069SOL    HW2 6832   2.660   1.337   1.257 -2.6599 -2.2523 -0.0620
 2070SOL     OW 6833   0.496   1.671   3.316 -0.4252 -0.4970  0.4727
 2070SOL    HW1 6834   0.465   1.666   3.412  0.5619 -1.4242  0.7526
 2070SOL    HW2 6835   0.585   1.627   3.307 -0.6588 -0.7188 -0.9531
 2071SOL     OW 6836   2.924   3.031   3.972 -0.3364  0.1049  0.2702
 2071SOL    HW1 6837   2.845   3.092   3.964 -1.0099 -0.6412  1.0728
 2071SOL    HW2 6838   2.956   3.007   3.881 -1.4739 -0.1435 -0.0828
 2072SOL     OW 6839   2.334   0.831   4.763  0.1483 -0.1093  0.2046
 2072SOL    HW1 6840   2.333   0.896   4.840 -0.8979 -0.5010  0.5350
 2072SOL    HW2 6841   2.297   0.876   4.682  0.8340  0.1658  0.0400
 2073SOL     OW 6842   0.396   4.023   3.942  0.3930  0.3926 -0.6363
 2073SOL    HW1 6843   0.325   4.091   3.923  0.1804  0.8971  1.7159
 2073SOL    HW2 6844   0.356   3.931   3.941  0.4045  0.3714 -2.4553
 2074SOL     OW 6845   3.879   4.645   1.360 -0.3044  0.5673  0.0293
 2074SOL    HW1 6846   3.963   4.613   1.316 -0.6406  1.0593 -0.9952
 2074SOL    HW2 6847   3.808   4.658   1.291 -1.5806 -0.9009  0.9916
 2075SOL     OW 6848   1.392   1.107   1.399 -0.1647 -0.5472  0.1855
 2075SOL    HW1 6849   1.331   1.119   1.477 -1.5953  0.1953 -1.0120
 2075SOL    HW2 6850   1.450   1.188   1.389  0.0196 -0.6431  0.4703
 2076SOL     OW 6851   3.754   2.153   2.138 -0.6346 -0.3392  0.4993
 2076SOL    HW1 6852   3.854   2.153   2.139 -0.6266  0.3607  1.9222
 2076SOL    HW2 6853   3.721   2.059   2.131  0.1243 -0.5768  0.0384
 2077SOL     OW 6854   0.441   1.336   2.760 -0.0802 -0.2023  0.2423
 2077SOL    HW1 6855   0.493   1.404   2.708 -0.0487 -1.0281 -0.8443
 2077SOL    HW2 6856   0.437   1.251   2.708  0.6316 -1.3290  1.9680
 2078SOL     OW 6857   0.641   1.172   0.934  0.0879 -0.0117  0.7519
 2078SOL    HW1 6858   0.595   1.086   0.954  0.7910 -0.1692  1.7603
 2078SOL    HW2 6859   0.707   1.158   0.861 -0.1296 -0.2205  0.5945
 2079SOL     OW 6860   1.120   2.474   0.091 -0.0394 -0.0830 -0.3058
 2079SOL    HW1 6861   1.118   2.386   0.043 -2.3611  0.2431 -0.9168
 2079SOL    HW2 6862   1.031   2.519   0.083  0.4141  1.3665  1.8231
 2080SOL     OW 6863   1.780   4.653   1.715 -0.1603  0.1870 -0.2578
 2080SOL    HW1 6864   1.853   4.663   1.647 -0.3658  1.4989 -0.3131
 2080SOL    HW2 6865   1.819   4.626   1.803 -0.0148 -2.8492 -1.1405
 2081SOL     OW 6866   3.610   2.415   0.338  0.4929 -0.3745  0.1295
 2081SOL    HW1 6867   3.703   2.377   0.341  1.7748  2.5638  1.5456
 2081SOL    HW2 6868   3.604   2.482   0.265 -0.4250 -0.2619  0.2958
 2082SOL     OW 6869   0.727   0.199   1.788 -0.0736 -0.2705 -0.6398
 2082SOL    HW1 6870   0.644   0.254   1.778  1.0387  1.2546 -2.0729
 2082SOL    HW2 6871   0.802   0.257   1.820  0.5120 -1.5790  0.4711
 2083SOL     OW 6872   3.615   3.364   2.606  0.3248  0.0448 -0.5825
 2083SOL    HW1 6873   3.540   3.380   2.670 -0.3107  0.9230 -1.5129
 2083SOL    HW2 6874   3.579   3.323   2.522  0.8889  0.4401 -1.0212
 2084SOL     OW 6875   0.343   1.083   1.127 -0.5535 -0.6859  0.0984
 2084SOL    HW1 6876   0.315   1.041   1.213 -2.1526 -0.0482 -0.0747
 2084SOL    HW2 6877   0.377   1.175   1.144 -0.3231 -0.7711  0.1040
 2085SOL     OW 6878   3.196   4.317   1.169  0.2717  0.0475  0.2140
 2085SOL    HW1 6879   3.118   4.356   1.218 -0.9911 -0.1608 -1.5381
 2085SOL    HW2 6880   3.232   4.385   1.105  1.4713  0.1006  0.9269
 2086SOL     OW 6881   2.248   2.519   0.846 -0.1822 -0.4654 -0.0671
 2086SOL    HW1 6882   2.208   2.441   0.894  0.3743 -0.3465  0.6121
 2086SOL    HW2 6883   2.254   2.597   0.909  0.7837 -0.3802 -0.2525
 2087SOL     OW 6884   1.026   2.079   2.099 -0.5518 -0.1717 -0.2865
 2087SOL    HW1 6885   0.997   1.990   2.136 -1.7113  0.5735  0.6765
 2087SOL    HW2 6886   1.112   2.068   2.050 -1.6797 -2.2641 -2.0327
 2088SOL     OW 6887   2.702   1.898   0.865  0.1124 -0.0045 -0.2672
 2088SOL    HW1 6888   2.744   1.813   0.899  2.4797  1.3881  0.4766
 2088SOL    HW2 6889   2.707   1.968   0.936 -1.0793  1.0171 -1.1635
 2089SOL     OW 6890   0.524   3.668   3.502 -0.4008 -0.2964  0.3938
 2089SOL    HW1 6891   0.616   3.632   3.487  0.2431  1.1139  0.7833
 2089SOL    HW2 6892   0.463   3.594   3.531 -0.0078 -1.7428 -2.2103
 2090SOL     OW 6893   3.073   3.381   1.694 -0.3686 -0.6821  0.2204
 2090SOL    HW1 6894   3.053   3.478   1.712 -1.6786 -0.9189  0.1327
 2090SOL    HW2 6895   3.167   3.361   1.722  0.7404  1.1480 -1.9234
 2091SOL     OW 6896   0.169   4.739   2.766  0.2256  0.4805  0.1103
 2091SOL    HW1 6897   0.233   4.806   2.803 -0.4459  1.1141  0.1497
 2091SOL    HW2 6898   0.083   4.784   2.742 -1.1672 -0.7046  2.4249
 2092SOL     OW 6899   2.148   0.793   3.947  0.3584 -0.3861  0.5691
 2092SOL    HW1 6900   2.080   0.793   4.020 -0.4859  0.9588 -0.1741
 2092SOL    HW2 6901   2.232   0.838   3.979 -0.3453  1.0527  0.4394
 2093SOL     OW 6902   2.729   4.142   1.027  0.9077  0.3113 -0.4295
 2093SOL    HW1 6903   2.635   4.108   1.028  1.0581 -0.1724 -1.3839
 2093SOL    HW2 6904   2.791   4.066   1.005  1.7958  0.0390  2.5975
 2094SOL     OW 6905   3.448   0.749   0.937  0.1583 -0.4326  0.2696
 2094SOL    HW1 6906   3.408   0.719   0.851  0.5312 -0.0445 -0.0423
 2094SOL    HW2 6907   3.522   0.687   0.963  0.5817 -0.0972 -0.1080
 2095SOL     OW 6908   0.265   0.924   3.335  0.1231  0.2006  0.1148
 2095SOL    HW1 6909   0.180   0.885   3.368  0.2263 -1.0008 -0.9705
 2095SOL    HW2 6910   0.323   0.852   3.298  0.4699  1.3163 -1.6289
 2096SOL     OW 6911   1.554   2.940   0.306 -0.1471  0.3772 -0.4490
 2096SOL    HW1 6912   1.608   2.914   0.226 -1.2889 -1.5095 -0.6705
 2096SOL    HW2 6913   1.487   3.009   0.280 -0.4798 -0.1865 -1.1444
 2097SOL     OW 6914   1.937   2.658   0.076  0.2740  0.9333 -0.8810
 2097SOL    HW1 6915   1.866   2.688   0.013 -1.1098 -0.8664 -0.2498
 2097SOL    HW2 6916   1.900   2.591   0.140  2.2410  0.8714  0.2966
 2098SOL     OW 6917   3.649   0.960   2.675  0.0731  0.1733  0.0749
 2098SOL    HW1 6918   3.636   0.951   2.576 -1.5670 -0.1644  0.2933
 2098SOL    HW2 6919   3.658   0.869   2.716  1.3022  0.3327  0.1861
 2099SOL     OW 6920   1.123   1.310   1.343  0.4202 -0.3715  0.8215
 2099SOL    HW1 6921   1.068   1.248   1.288  1.4979 -0.9327  0.3421
 2099SOL    HW2 6922   1.150   1.265   1.428  0.7564 -0.3756  0.7148
 2100SOL     OW 6923   3.235   2.279   0.565  0.1711 -0.6246  0.8408
 2100SOL    HW1 6924   3.247   2.204   0.631 -1.0956 -1.0610  0.6095
 2100SOL    HW2 6925   3.141   2.313   0.571  0.6729  0.8219  0.7923
 2101SOL     OW 6926   1.617   2.511   0.483  0.2343  0.1608  0.4088
 2101SOL    HW1 6927   1.551   2.587   0.483 -1.4901 -1.1571  3.5999
 2101SOL    HW2 6928   1.568   2.425   0.474  2.2051 -0.7619 -3.7577
 2102SOL     OW 6929   2.818   2.190   4.458  0.1599  0.4721  0.0730
 2102SOL    HW1 6930   2.892   2.243   4.499  0.3085 -0.3507  0.8894
 2102SOL    HW2 6931   2.750   2.168   4.528  0.5779 -1.2452 -0.0412
 2103SOL     OW 6932   0.543   2.230   1.688 -0.1322  0.5832 -0.7911
 2103SOL    HW1 6933   0.631   2.210   1.731  1.0244  0.4914 -3.0625
 2103SOL    HW2 6934   0.528   2.329   1.685  0.0600  0.6129 -0.7351
 2104SOL     OW 6935   3.899   2.860   2.511  0.2600  0.3324 -0.4042
 2104SOL    HW1 6936   3.942   2.948   2.531  1.0365  0.1803 -1.3256
 2104SOL    HW2 6937   3.844   2.868   2.428 -0.9579  0.3383  0.3755
 2105SOL     OW 6938   0.730   1.793   1.820  0.0190  0.4489  0.5423
 2105SOL    HW1 6939   0.703   1.756   1.732 -1.2668  0.3180  0.9767
 2105SOL    HW2 6940   0.787   1.726   1.868 -1.3676 -0.5599  0.8546
 2106SOL     OW 6941   4.721   0.173   1.230  0.1300  0.2605 -0.0421
 2106SOL    HW1 6942   4.664   0.251   1.203  0.8518  0.7134 -0.2673
 2106SOL    HW2 6943   4.711   0.157   1.328 -1.4748 -0.5566 -0.3003
 2107SOL     OW 6944   3.074   1.090   1.130 -0.1359 -0.4873 -0.2940
 2107SOL    HW1 6945   3.103   0.995   1.144  1.2719  0.0639  0.8137
 2107SOL    HW2 6946   3.076   1.138   1.218  0.3911  0.8898 -1.0312
 2108SOL     OW 6947   1.251   0.373   3.007 -0.4051  0.4565 -0.2074
 2108SOL    HW1 6948   1.266   0.457   3.060  0.2757 -0.6020  1.3453
 2108SOL    HW2 6949   1.211   0.303   3.067 -1.9667 -0.0196 -1.7420
 2109SOL     OW 6950   3.496   2.249   2.005  0.5029 -0.0658  0.0376
 2109SOL    HW1 6951   3.572   2.214   2.060  0.7917 -0.0795 -0.3634
 2109SOL    HW2 6952   3.508   2.347   1.991  0.1532  0.0320  0.4367
 2110SOL     OW 6953   1.506   2.404   1.120 -0.6095 -0.1671 -0.3861
 2110SOL    HW1 6954   1.437   2.459   1.168 -0.0016  1.4614 -1.3066
 2110SOL    HW2 6955   1.518   2.440   1.028  2.0710  0.1437  0.0110
 2111SOL     OW 6956   4.844   1.376   2.094  0.2682  0.2496 -0.3673
 2111SOL    HW1 6957   4.880   1.428   2.017 -0.5718  0.6757 -0.4834
 2111SOL    HW2 6958   4.919   1.348   2.154  0.6985  1.9953 -0.0447
 2112SOL     OW 6959   2.340   3.927   1.857  0.2439  0.2622 -0.6742
 2112SOL    HW1 6960   2.427   3.972   1.836  1.3474 -1.4463  0.0003
 2112SOL    HW2 6961   2.281   3.928   1.776  0.7719  1.6823 -1.0559
 2113SOL     OW 6962   4.223   1.717   1.241 -0.3157 -0.2640  0.1944
 2113SOL    HW1 6963   4.187   1.804   1.273  1.5639 -0.2907  2.7332
 2113SOL    HW2 6964   4.160   1.643   1.264 -0.6308  0.1351  0.6201
 2114SOL     OW 6965   2.641   3.537   3.918  1.0377 -0.1887  0.1792
 2114SOL    HW1 6966   2.611   3.507   4.009 -0.1871 -1.8630 -0.7290
 2114SOL    HW2 6967   2.598   3.624   3.896  1.0586  0.0537  1.0607
 2115SOL     OW 6968   0.517   4.447   3.510  0.1489 -0.8205  0.5432
 2115SOL    HW1 6969   0.510   4.546   3.524  0.7780 -0.8787  1.3461
 2115SOL    HW2 6970   0.496   4.400   3.595 -1.5646 -1.4623 -0.1834
 2116SOL     OW 6971   1.768   3.085   2.525 -0.1652  0.4003 -0.1928
 2116SOL    HW1 6972   1.767   3.009   2.460  2.1328  1.2350 -1.3076
 2116SOL    HW2 6973   1.825   3.061   2.604 -1.8413 -0.0871  0.9328
 2117SOL     OW 6974   3.607   0.932   4.667 -0.0275  0.3421 -1.1326
 2117SOL    HW1 6975   3.676   0.993   4.628  1.6235  0.1198  1.2480
 2117SOL    HW2 6976   3.608   0.844   4.619 -0.1243  1.0204 -2.4265
 2118SOL     OW 6977   0.769   4.172   1.020  0.1270  0.4069  0.1817
 2118SOL    HW1 6978   0.811   4.222   1.096 -1.1775  0.8498  0.6383
 2118SOL    HW2 6979   0.769   4.229   0.938  0.6124  0.3124  0.1106
 2119SOL     OW 6980   0.455   0.037   2.695 -0.2127 -0.4976  0.1199
 2119SOL    HW1 6981   0.434   0.041   2.598 -1.5975  0.2620  0.4177
 2119SOL    HW2 6982   0.525   0.105   2.717 -1.3567  0.7863 -0.0421
 2120SOL     OW 6983   3.675   4.191   2.604  0.2496  0.0284 -0.2143
 2120SOL    HW1 6984   3.614   4.195   2.525  0.7207 -0.3758 -0.6066
 2120SOL    HW2 6985   3.621   4.187   2.688 -0.2552  0.3746 -0.5167
 2121SOL     OW 6986   2.364   3.706   0.727  0.2001  0.1595  0.0291
 2121SOL    HW1 6987   2.381   3.697   0.825  1.5978  3.2026  0.1628
 2121SOL    HW2 6988   2.317   3.623   0.694 -0.0871 -1.0695  3.1514
 2122SOL     OW 6989   4.463   0.194   3.481  0.7362  0.0327  0.4684
 2122SOL    HW1 6990   4.514   0.259   3.539  2.2030  0.5467 -1.2988
 2122SOL    HW2 6991   4.528   0.139   3.429 -0.5182 -0.0420 -1.0775
 2123SOL     OW 6992   4.681   1.112   1.257  0.0515  0.2202  0.0515
 2123SOL    HW1 6993   4.729   1.093   1.171  1.7843  0.4896  0.9140
 2123SOL    HW2 6994   4.620   1.190   1.244 -0.1601 -0.1027 -1.0724
 2124SOL     OW 6995   1.308   0.363   4.794  0.4519  0.0015  0.1847
 2124SOL    HW1 6996   1.280   0.459   4.789 -1.1276 -0.4656 -0.7208
 2124SOL    HW2 6997   1.339   0.333   4.703  2.7214  0.1163  0.8610
 2125SOL     OW 6998   0.879   3.462   1.136  0.4342  0.3614 -0.8853
 2125SOL    HW1 6999   0.956   3.401   1.118  1.4875  1.6787 -1.0502
 2125SOL    HW2 7000   0.819   3.422   1.205  1.8581 -0.2383  0.0557
 2126SOL     OW 7001   1.570   2.513   0.083 -0.0267  0.0652 -0.5594
 2126SOL    HW1 7002   1.487   2.558   0.115 -0.3663  0.0629 -1.4271
 2126SOL    HW2 7003   1.552   2.466  -0.003  0.8223 -0.1090 -0.6511
 2127SOL     OW 7004   3.002   3.318   2.625 -0.2234  0.4843  0.5419
 2127SOL    HW1 7005   3.056   3.252   2.677 -0.4066  0.6301  0.9215
 2127SOL    HW2 7006   3.047   3.336   2.538 -1.1265 -1.5624 -0.4070
 2128SOL     OW 7007   0.381   0.351   4.665 -0.6235 -0.3176 -0.3085
 2128SOL    HW1 7008   0.370   0.253   4.651  0.1842 -0.4240 -0.2591
 2128SOL    HW2 7009   0.347   0.376   4.756 -1.4331 -0.4326 -0.5723
 2129SOL     OW 7010   1.631   1.868   1.813  0.0072 -0.4150  0.1457
 2129SOL    HW1 7011   1.681   1.935   1.867 -0.0018 -1.2024  1.1569
 2129SOL    HW2 7012   1.667   1.776   1.831 -0.5333 -0.7811 -0.5696
 2130SOL     OW 7013   3.790   3.224   4.863  0.4131  0.2561 -0.0661
 2130SOL    HW1 7014   3.721   3.291   4.834 -0.5518  0.0589  1.6245
 2130SOL    HW2 7015   3.811   3.163   4.788 -1.7647 -0.0875 -0.4773
 2131SOL     OW 7016   3.447   0.987   0.720 -0.1148  0.3136 -0.1604
 2131SOL    HW1 7017   3.438   0.904   0.776  0.1833  1.2379  1.3185
 2131SOL    HW2 7018   3.403   1.063   0.766  2.7295  1.7995  0.3506
 2132SOL     OW 7019   2.225   4.207   0.305 -0.0305 -0.1996  0.2276
 2132SOL    HW1 7020   2.239   4.293   0.256  1.4274 -0.3323  0.3620
 2132SOL    HW2 7021   2.209   4.226   0.402 -2.9049  0.0627 -0.2201
 2133SOL     OW 7022   1.670   3.565   0.143  0.6263  0.4522  0.1471
 2133SOL    HW1 7023   1.627   3.656   0.145 -1.5227 -0.4794 -0.5445
 2133SOL    HW2 7024   1.702   3.541   0.234 -0.1290  1.3111  0.6587
 2134SOL     OW 7025   2.500   2.147   3.326  0.6475 -0.7130  0.8795
 2134SOL    HW1 7026   2.566   2.137   3.401  1.6277 -0.9194  0.0206
 2134SOL    HW2 7027   2.521   2.230   3.274 -0.2190 -0.4027  1.0196
 2135SOL     OW 7028   1.934   4.689   1.367 -0.4803 -0.7222 -0.1172
 2135SOL    HW1 7029   1.923   4.784   1.398 -1.0447 -0.0216 -2.2905
 2135SOL    HW2 7030   1.871   4.671   1.292  1.8963 -1.7866 -1.9741
 2136SOL     OW 7031   1.677   3.318   2.914  0.6186  0.4317 -0.8045
 2136SOL    HW1 7032   1.650   3.223   2.899  1.6952  0.0773 -0.5624
 2136SOL    HW2 7033   1.716   3.355   2.830  1.9458  0.0469 -0.3845
 2137SOL     OW 7034   4.491   0.783   4.432 -0.0971 -0.5819  0.0927
 2137SOL    HW1 7035   4.454   0.830   4.351 -3.2942 -1.4689  0.9010
 2137SOL    HW2 7036   4.459   0.830   4.515  0.3462 -1.6260  0.8681
 2138SOL     OW 7037   2.132   3.569   0.182 -0.2284 -0.3498 -0.4718
 2138SOL    HW1 7038   2.118   3.664   0.154  1.8466  0.4055  0.7953
 2138SOL    HW2 7039   2.128   3.510   0.102  0.3248  1.0553 -1.5864
 2139SOL     OW 7040   1.124   3.565   2.163 -0.4523  0.3232  0.3158
 2139SOL    HW1 7041   1.105   3.647   2.216 -0.8157  0.9910 -0.8173
 2139SOL    HW2 7042   1.068   3.489   2.197 -0.2213  0.5773  1.2737
 2140SOL     OW 7043   3.442   2.023   1.826 -0.0930  0.5916  0.4800
 2140SOL    HW1 7044   3.516   2.053   1.767 -0.7949  1.4375 -0.0027
 2140SOL    HW2 7045   3.419   2.096   1.890 -1.4301  0.8984 -0.3089
 2141SOL     OW 7046   3.048   1.686   2.402  0.1676  0.4298 -0.2319
 2141SOL    HW1 7047   3.006   1.767   2.360 -1.3212 -0.0106  0.3434
 2141SOL    HW2 7048   3.012   1.604   2.358 -0.9056 -0.0186  1.4198
 2142SOL     OW 7049   1.293   3.340   1.409  0.0300  0.1411  0.0871
 2142SOL    HW1 7050   1.371   3.331   1.347 -0.9699  1.4211 -1.4557
 2142SOL    HW2 7051   1.293   3.432   1.449 -0.6075  0.1131  0.1626
 2143SOL     OW 7052   1.221   3.739   4.733 -0.4032  0.5022  0.5524
 2143SOL    HW1 7053   1.306   3.789   4.724 -1.1715  1.6232 -0.7504
 2143SOL    HW2 7054   1.208   3.679   4.654 -0.2841 -0.5748  1.3111
 2144SOL     OW 7055   1.080   4.316   2.282  0.4827 -0.3950  0.2338
 2144SOL    HW1 7056   1.168   4.348   2.315 -0.9007  2.0658  1.7802
 2144SOL    HW2 7057   1.026   4.280   2.359  0.2956 -2.4251 -0.7746
 2145SOL     OW 7058   0.975   3.353   0.332 -0.2394  0.1919 -0.0473
 2145SOL    HW1 7059   0.912   3.430   0.338 -1.6262 -0.9320  0.2125
 2145SOL    HW2 7060   0.950   3.295   0.254 -0.1098 -0.7601  0.5979
 2146SOL     OW 7061   3.200   3.384   2.375  0.2737  0.1771 -0.3715
 2146SOL    HW1 7062   3.134   3.432   2.318  0.0946  1.1692  0.6289
 2146SOL    HW2 7063   3.260   3.451   2.420  1.7562 -0.6851 -0.9877
 2147SOL     OW 7064   3.976   3.989   3.595  0.6325  0.2367 -0.2603
 2147SOL    HW1 7065   3.994   4.085   3.613  0.4750  0.0739  0.8167
 2147SOL    HW2 7066   4.063   3.940   3.585  0.8081 -0.0203  2.0813
 2148SOL     OW 7067   2.972   3.003   0.947  0.9641  0.3657  0.3894
 2148SOL    HW1 7068   2.966   3.052   1.034 -2.2024 -2.5638  2.0484
 2148SOL    HW2 7069   3.035   2.926   0.955  0.2279 -0.2555  0.2996
 2149SOL     OW 7070   1.911   3.459   4.676  0.2132  0.2659  0.5223
 2149SOL    HW1 7071   1.837   3.519   4.646 -0.6170 -0.6488  0.6900
 2149SOL    HW2 7072   1.991   3.473   4.618  0.0837  1.6237  0.6455
 2150SOL     OW 7073   4.687   4.093   2.757 -0.1225  0.5228 -0.1902
 2150SOL    HW1 7074   4.664   4.013   2.813  3.1078 -0.4183  0.0093
 2150SOL    HW2 7075   4.613   4.111   2.693 -1.6560 -1.6326  0.8484
 2151SOL     OW 7076   3.654   1.317   0.613  0.1329  0.3401  0.2075
 2151SOL    HW1 7077   3.682   1.410   0.637  0.9655  0.5075 -1.2929
 2151SOL    HW2 7078   3.733   1.265   0.582 -0.3092 -0.9213  1.1209
 2152SOL     OW 7079   3.333   3.662   0.513  0.0015 -0.4142 -0.2793
 2152SOL    HW1 7080   3.431   3.660   0.532 -0.1320 -0.3289  0.4536
 2152SOL    HW2 7081   3.317   3.683   0.417  0.7016 -0.4031 -0.3924
 2153SOL     OW 7082   1.157   3.491   4.571  0.1812  0.1310  0.2521
 2153SOL    HW1 7083   1.127   3.449   4.656 -0.0723 -3.4234 -1.4299
 2153SOL    HW2 7084   1.256   3.476   4.559  0.0174 -0.3830 -0.5515
 2154SOL     OW 7085   2.113   3.838   3.700 -0.2778  0.3113 -0.4818
 2154SOL    HW1 7086   2.126   3.823   3.798 -0.3057  0.5129 -0.4476
 2154SOL    HW2 7087   2.199   3.823   3.652 -0.5714 -1.1297 -0.5888
 2155SOL     OW 7088   0.723   2.916   2.879  0.5564 -0.1581  0.7229
 2155SOL    HW1 7089   0.643   2.975   2.891  0.2709 -0.4093  0.0527
 2155SOL    HW2 7090   0.702   2.842   2.816  0.6367 -1.5227  2.2402
 2156SOL     OW 7091   0.840   2.607   1.292  0.3961  0.3012  0.0893
 2156SOL    HW1 7092   0.864   2.537   1.360 -1.8113  0.1347  0.7573
 2156SOL    HW2 7093   0.772   2.668   1.331  0.1235  1.0585 -1.5268
 2157SOL     OW 7094   0.153   0.474   0.622  0.1095  0.6751  0.0227
 2157SOL    HW1 7095   0.204   0.453   0.706 -0.5971  1.1156  0.5738
 2157SOL    HW2 7096   0.143   0.390   0.568  0.9209  0.4667  0.1722
 2158SOL     OW 7097   3.973   4.384   1.776 -0.5684  0.2706 -0.2758
 2158SOL    HW1 7098   4.047   4.443   1.808 -1.3448  1.7374 -1.0693
 2158SOL    HW2 7099   3.968   4.389   1.676 -0.5538 -1.2897 -0.3742
 2159SOL     OW 7100   1.797   2.057   0.430  0.0035  0.4038 -0.3686
 2159SOL    HW1 7101   1.727   2.070   0.500 -0.1332 -0.3010 -0.3757
 2159SOL    HW2 7102   1.755   2.022   0.346 -0.0301  2.3276 -1.2263
 2160SOL     OW 7103   3.219   3.017   1.992  0.1959 -0.3862  0.0762
 2160SOL    HW1 7104   3.315   3.021   2.019  0.3839 -0.3470 -0.5891
 2160SOL    HW2 7105   3.200   2.929   1.949 -0.0695 -0.4020  0.2268
 2161SOL     OW 7106   3.329   1.137   0.008  0.2165  0.5903 -0.3620
 2161SOL    HW1 7107   3.366   1.227  -0.016 -1.0172  0.9222 -1.0805
 2161SOL    HW2 7108   3.401   1.068  -0.006  1.7706  1.6109  1.9570
 2162SOL     OW 7109   1.520   1.718   2.591 -0.4412 -0.4927 -0.3047
 2162SOL    HW1 7110   1.512   1.668   2.677  0.5462 -1.5533 -0.8026
 2162SOL    HW2 7111   1.551   1.656   2.519  4.1233  1.3405 -0.2603
 2163SOL     OW 7112   4.512   0.510   4.397 -0.0290  0.4607 -0.3990
 2163SOL    HW1 7113   4.504   0.463   4.485 -1.4920  0.3818 -0.5513
 2163SOL    HW2 7114   4.500   0.608   4.410  2.5885  0.8251 -0.1452
 2164SOL     OW 7115   2.084   2.391   2.430 -0.4048 -0.6472  0.4368
 2164SOL    HW1 7116   2.008   2.450   2.402  0.2731  0.8432  1.5465
 2164SOL    HW2 7117   2.103   2.324   2.359 -0.5092  1.1768 -1.4100
 2165SOL     OW 7118   2.351   4.803   2.090  0.3959  0.8164  0.4974
 2165SOL    HW1 7119   2.331   4.844   2.001 -1.7457  0.1922  0.6251
 2165SOL    HW2 7120   2.315   4.863   2.162  1.1476  0.7987  0.8900
 2166SOL     OW 7121   1.899   0.626   3.025 -0.2473 -0.4169  0.1855
 2166SOL    HW1 7122   1.800   0.618   3.037 -0.2766  2.2737  2.9227
 2166SOL    HW2 7123   1.944   0.609   3.113  1.5083  0.9369 -0.4093
 2167SOL     OW 7124   0.445   0.617   3.873 -0.6413 -0.4834  0.2157
 2167SOL    HW1 7125   0.396   0.540   3.832 -0.7083 -0.3219 -0.0044
 2167SOL    HW2 7126   0.394   0.701   3.858  0.7711  0.0692 -2.0438
 2168SOL     OW 7127   4.447   4.213   1.412 -0.0790 -0.2070 -0.1095
 2168SOL    HW1 7128   4.447   4.242   1.316 -0.3325  0.0756 -0.0260
 2168SOL    HW2 7129   4.541   4.194   1.440 -0.0858 -1.1070 -0.6515
 2169SOL     OW 7130   4.742   2.251   4.625  0.2548 -0.0520  0.8325
 2169SOL    HW1 7131   4.763   2.349   4.634 -2.1894  0.5433  0.6202
 2169SOL    HW2 7132   4.777   2.218   4.537  1.3213  0.5508  1.0113
 2170SOL     OW 7133   1.723   2.757   4.827 -0.3222  0.3084 -0.3982
 2170SOL    HW1 7134   1.709   2.694   4.751  0.5979 -2.7272  1.7392
 2170SOL    HW2 7135   1.634   2.787   4.862 -0.7522  1.8317 -2.6153
 2171SOL     OW 7136   3.058   1.467   1.107  0.9085 -0.0414  0.5487
 2171SOL    HW1 7137   3.008   1.409   1.172 -0.5713  0.8570  0.2559
 2171SOL    HW2 7138   3.057   1.561   1.139  1.9667  0.0770  0.2509
 2172SOL     OW 7139   3.581   3.162   3.675 -0.8165 -0.4413  0.2286
 2172SOL    HW1 7140   3.561   3.208   3.762 -1.7051  0.7190 -0.5633
 2172SOL    HW2 7141   3.617   3.070   3.694  1.0356  0.5334  1.8612
 2173SOL     OW 7142   3.192   1.974   2.426  0.4164 -0.1551  0.3299
 2173SOL    HW1 7143   3.230   1.882   2.434  1.1094  0.0413 -0.4970
 2173SOL    HW2 7144   3.125   1.989   2.498 -1.5342 -2.1663 -0.9485
 2174SOL     OW 7145   1.687   2.583   4.625 -0.3861 -0.0806  0.0149
 2174SOL    HW1 7146   1.782   2.555   4.610  0.0152  1.4939 -0.6157
 2174SOL    HW2 7147   1.648   2.614   4.538 -0.1355  3.0814  0.9070
 2175SOL     OW 7148   2.280   1.329   1.958  0.2320  0.1176  0.2260
 2175SOL    HW1 7149   2.296   1.231   1.947  0.0871  0.2688 -1.6182
 2175SOL    HW2 7150   2.322   1.379   1.882  1.2363  1.6194  1.6777
 2176SOL     OW 7151   3.076   0.462   3.500 -0.3003  0.6476 -0.3991
 2176SOL    HW1 7152   3.032   0.517   3.430  2.5488  1.4770 -1.6971
 2176SOL    HW2 7153   3.130   0.390   3.457 -1.9985 -1.7427  1.1927
 2177SOL     OW 7154   3.324   2.547   4.663  0.3624 -0.7242 -0.2234
 2177SOL    HW1 7155   3.405   2.605   4.655  0.5680 -0.8336  0.9386
 2177SOL    HW2 7156   3.289   2.551   4.757 -0.2692 -1.6313 -0.4070
 2178SOL     OW 7157   1.400   0.639   1.051  0.2833 -0.0672  0.5785
 2178SOL    HW1 7158   1.494   0.654   1.021  0.0695 -1.5464 -1.0056
 2178SOL    HW2 7159   1.337   0.651   0.974 -0.5036 -1.9460  0.8705
 2179SOL     OW 7160   1.400   3.531   0.033 -0.1176  0.3346  0.5912
 2179SOL    HW1 7161   1.478   3.544   0.093 -1.1620  1.5747  1.7460
 2179SOL    HW2 7162   1.384   3.614  -0.020 -0.7534  0.1601  0.4995
 2180SOL     OW 7163   2.054   1.199   0.513 -0.1211 -0.1389 -0.7642
 2180SOL    HW1 7164   2.119   1.220   0.586  0.5274  0.4399 -1.4844
 2180SOL    HW2 7165   1.981   1.140   0.548 -0.7374  1.4550  0.7716
 2181SOL     OW 7166   1.374   0.206   2.824 -0.2605  0.1546  0.2983
 2181SOL    HW1 7167   1.347   0.286   2.878  0.0394  0.5528 -0.1445
 2181SOL    HW2 7168   1.303   0.136   2.832 -1.3858  1.1396 -0.7425
 2182SOL     OW 7169   3.743   3.384   0.950  0.1266  0.1509  0.2017
 2182SOL    HW1 7170   3.742   3.430   0.861  0.8118  0.0404  0.1324
 2182SOL    HW2 7171   3.662   3.325   0.958  0.6712 -0.7797 -0.8588
 2183SOL     OW 7172   2.725   1.778   1.515  0.1243 -0.2311 -0.3538
 2183SOL    HW1 7173   2.763   1.849   1.455 -0.6656  1.2327  0.7932
 2183SOL    HW2 7174   2.626   1.777   1.505  0.2117 -2.3589 -1.5557
 2184SOL     OW 7175   1.807   4.387   0.061 -0.0556  0.0124 -0.3101
 2184SOL    HW1 7176   1.853   4.433   0.136 -2.4489  0.1773  1.1757
 2184SOL    HW2 7177   1.751   4.312   0.097  1.5202 -2.3375 -2.3597
 2185SOL     OW 7178   1.884   0.880   0.133 -0.3925  0.4336 -0.1277
 2185SOL    HW1 7179   1.922   0.788   0.133  2.4373  1.4917  1.5494
 2185SOL    HW2 7180   1.851   0.902   0.041  0.9476 -1.4327 -1.1191
 2186SOL     OW 7181   3.512   2.531   0.555 -0.0031  0.5621  0.3642
 2186SOL    HW1 7182   3.418   2.540   0.522  0.4198  1.6057 -0.6438
 2186SOL    HW2 7183   3.569   2.490   0.484  0.6114  1.3754  0.3662
 2187SOL     OW 7184   0.160   3.197   1.627 -0.2329 -0.3262 -0.0185
 2187SOL    HW1 7185   0.241   3.249   1.655  0.0519 -1.4580  1.3442
 2187SOL    HW2 7186   0.182   3.100   1.624 -1.9277 -0.8283  1.9364
 2188SOL     OW 7187   1.530   0.523   1.865  0.4963  0.0002 -0.5515
 2188SOL    HW1 7188   1.559   0.435   1.904  1.9486 -0.2579 -2.0886
 2188SOL    HW2 7189   1.499   0.583   1.938  0.4954 -1.4133  0.6573
 2189SOL     OW 7190   1.539   4.363   0.872  0.7454 -0.0427  0.1867
 2189SOL    HW1 7191   1.491   4.381   0.958 -1.5050 -1.6677 -0.6296
 2189SOL    HW2 7192   1.483   4.303   0.815  2.5643  0.2806 -2.0724
 2190SOL     OW 7193   2.203   3.445   2.783  0.3672  0.4329  0.0734
 2190SOL    HW1 7194   2.188   3.544   2.788  0.4642  0.4113  1.1084
 2190SOL    HW2 7195   2.132   3.403   2.726 -2.2766  0.6340  2.8863
 2191SOL     OW 7196   1.977   4.083   4.106 -0.1851  0.1221  0.3077
 2191SOL    HW1 7197   2.003   4.177   4.130  0.5782 -0.1056  0.4097
 2191SOL    HW2 7198   1.897   4.085   4.046  0.3554  0.8896 -0.4221
 2192SOL     OW 7199   2.213   2.044   2.084 -0.6746  0.2402 -0.1421
 2192SOL    HW1 7200   2.214   2.100   2.167  2.1115 -0.0086  0.0933
 2192SOL    HW2 7201   2.236   2.101   2.005  1.1533 -0.2765 -0.0414
 2193SOL     OW 7202   0.410   4.860   4.313 -0.2971 -0.4425 -0.2468
 2193SOL    HW1 7203   0.380   4.878   4.220 -0.0490  0.7314 -0.1156
 2193SOL    HW2 7204   0.488   4.918   4.336  0.1746 -1.3026  0.4273
 2194SOL     OW 7205   2.596   0.409   2.752 -0.1615  0.3928 -0.3458
 2194SOL    HW1 7206   2.587   0.407   2.653  1.5432 -0.3693 -0.5063
 2194SOL    HW2 7207   2.516   0.455   2.791 -1.3485 -0.1826 -1.9815
 2195SOL     OW 7208   4.725   0.646   0.769  0.2694  0.3058 -0.9135
 2195SOL    HW1 7209   4.749   0.743   0.774  0.2289  0.2686  0.3438
 2195SOL    HW2 7210   4.625   0.637   0.768  0.2724  0.2808 -0.9641
 2196SOL     OW 7211   1.678   0.339   4.659  0.2854  0.0723 -0.0318
 2196SOL    HW1 7212   1.663   0.244   4.685 -0.3006 -0.4364 -2.0316
 2196SOL    HW2 7213   1.593   0.378   4.625  0.2197  1.7342  1.8691
 2197SOL     OW 7214   1.610   3.263   4.389 -0.4736 -0.1946  0.3214
 2197SOL    HW1 7215   1.662   3.341   4.355 -2.4148  0.6133 -0.9604
 2197SOL    HW2 7216   1.569   3.286   4.477 -1.2701  0.3528 -0.1854
 2198SOL     OW 7217   1.987   1.055   2.558 -0.0116  0.1766  0.5342
 2198SOL    HW1 7218   2.016   1.138   2.605 -0.7385  1.8911 -1.8408
 2198SOL    HW2 7219   1.887   1.054   2.551  0.0470 -0.3182 -0.4236
 2199SOL     OW 7220   2.290   0.284   3.204  0.2267 -0.0672  0.3890
 2199SOL    HW1 7221   2.283   0.288   3.304 -0.0008 -1.0867  0.4161
 2199SOL    HW2 7222   2.307   0.376   3.169 -0.9875  0.5235  1.2653
 2200SOL     OW 7223   4.437   3.289   0.025 -0.1534 -0.0132 -0.1315
 2200SOL    HW1 7224   4.435   3.251  -0.067 -1.7883  0.3719 -0.2768
 2200SOL    HW2 7225   4.464   3.385   0.020 -0.2404  0.0076 -0.2001
 2201SOL     OW 7226   0.078   1.960   3.100  0.7908  0.2909 -0.3892
 2201SOL    HW1 7227   0.173   1.934   3.115  0.5469 -0.1304  0.5393
 2201SOL    HW2 7228   0.052   1.941   3.006  0.9442 -1.8481 -0.0414
 2202SOL     OW 7229   1.363   3.540   3.949  0.4559 -0.5663 -0.3271
 2202SOL    HW1 7230   1.362   3.575   4.043 -1.8678  1.1831 -0.9058
 2202SOL    HW2 7231   1.349   3.616   3.885  0.1978 -1.9521 -1.9986
 2203SOL     OW 7232   3.174   4.213   1.886 -0.7380  0.4590  0.9952
 2203SOL    HW1 7233   3.195   4.240   1.980 -1.5306 -1.1237  1.6639
 2203SOL    HW2 7234   3.257   4.220   1.830  0.6207 -1.6775  2.5863
 2204SOL     OW 7235   0.391   3.066   0.361  0.0240 -0.1216 -0.3263
 2204SOL    HW1 7236   0.411   3.152   0.408  1.1139 -0.5596  0.0394
 2204SOL    HW2 7237   0.475   3.029   0.321 -0.7220 -0.1527 -1.9895
 2205SOL     OW 7238   1.360   3.643   1.745  0.1870 -0.2490 -0.1735
 2205SOL    HW1 7239   1.424   3.575   1.780  0.8987  0.4324 -0.1314
 2205SOL    HW2 7240   1.309   3.684   1.821 -0.1995 -0.6769 -0.1938
 2206SOL     OW 7241   2.308   3.573   3.509 -0.2323 -0.8591 -0.3441
 2206SOL    HW1 7242   2.209   3.575   3.519 -0.2044 -2.0243  0.3788
 2206SOL    HW2 7243   2.347   3.657   3.547 -0.9888  0.0801 -1.5618
 2207SOL     OW 7244   4.111   0.029   4.446 -0.3660  0.4173  0.1668
 2207SOL    HW1 7245   4.148  -0.017   4.527 -1.6708  1.2877  1.3094
 2207SOL    HW2 7246   4.155  -0.007   4.364  1.1844 -0.3121  1.2708
 2208SOL     OW 7247   1.160   1.764   1.289 -0.4769 -0.0977  0.2678
 2208SOL    HW1 7248   1.190   1.859   1.280 -0.8544 -0.1222 -1.6888
 2208SOL    HW2 7249   1.103   1.739   1.210 -1.4236 -1.5814  1.3661
 2209SOL     OW 7250   3.295   3.356   0.542 -0.5788 -0.3540 -0.5488
 2209SOL    HW1 7251   3.273   3.451   0.523 -0.2897 -0.7805 -3.4491
 2209SOL    HW2 7252   3.386   3.349   0.583 -0.6248  0.6094 -0.2798
 2210SOL     OW 7253   0.220   1.139   0.873  0.2550 -0.1909 -0.1128
 2210SOL    HW1 7254   0.164   1.060   0.849  0.6272 -0.7713  0.8518
 2210SOL    HW2 7255   0.241   1.137   0.971 -1.1264  2.0156  0.2950
 2211SOL     OW 7256   4.065   0.669   3.856  0.5875 -0.1524 -0.4443
 2211SOL    HW1 7257   4.125   0.699   3.930  0.3692 -0.2660 -0.2191
 2211SOL    HW2 7258   4.035   0.747   3.802  0.1040  0.0281  0.0748
 2212SOL     OW 7259   4.639   2.920   0.579  0.1319  0.4579 -0.4488
 2212SOL    HW1 7260   4.737   2.921   0.601 -0.4814 -0.0219  2.8585
 2212SOL    HW2 7261   4.597   3.005   0.612 -0.6431  0.5031 -1.5187
 2213SOL     OW 7262   3.470   2.276   3.879 -0.2391  0.0690 -0.1277
 2213SOL    HW1 7263   3.423   2.295   3.965  1.0441 -1.0773  0.8802
 2213SOL    HW2 7264   3.492   2.178   3.874  1.9877  0.5414 -0.5243
 2214SOL     OW 7265   4.817   0.304   0.505 -0.1874  0.1335 -0.3913
 2214SOL    HW1 7266   4.746   0.244   0.468 -0.9915  1.0501 -0.3640
 2214SOL    HW2 7267   4.780   0.396   0.518  0.2701  0.0510  1.9754
 2215SOL     OW 7268   2.637   0.170   3.345 -0.3227 -0.2229 -0.2014
 2215SOL    HW1 7269   2.701   0.094   3.327 -0.8633 -0.4468 -1.2577
 2215SOL    HW2 7270   2.578   0.146   3.422 -1.1205 -1.3099 -1.1102
 2216SOL     OW 7271   0.108   1.233   3.414  0.1039 -0.2399  0.4675
 2216SOL    HW1 7272   0.030   1.262   3.358  0.6646  0.9523  0.2603
 2216SOL    HW2 7273   0.189   1.223   3.357 -0.0786 -2.4630  0.5097
 2217SOL     OW 7274   2.789   0.707   0.397 -0.4151 -0.2172  0.4900
 2217SOL    HW1 7275   2.880   0.679   0.366 -1.0029 -3.0042  0.9985
 2217SOL    HW2 7276   2.733   0.734   0.319 -0.1321 -1.6368 -0.2200
 2218SOL     OW 7277   4.358   4.388   0.629  0.1333 -0.3378  0.2879
 2218SOL    HW1 7278   4.421   4.350   0.697  1.0654  0.5609 -0.0475
 2218SOL    HW2 7279   4.318   4.472   0.664  2.3826  1.4113 -1.0966
 2219SOL     OW 7280   3.335   4.567   1.917  0.4920 -0.4135  0.5538
 2219SOL    HW1 7281   3.241   4.533   1.916  0.0746  0.6460  1.2910
 2219SOL    HW2 7282   3.374   4.552   2.008  0.2351  1.1852  0.9513
 2220SOL     OW 7283   2.131   2.324   2.785 -0.4066 -0.5911  0.7938
 2220SOL    HW1 7284   2.173   2.402   2.739 -2.8149  0.8075  0.8288
 2220SOL    HW2 7285   2.133   2.338   2.884 -2.5462  0.4325  0.7374
 2221SOL     OW 7286   2.035   1.463   4.546 -0.4003 -0.0795 -0.3136
 2221SOL    HW1 7287   2.071   1.422   4.462 -1.0887 -2.3055  0.4139
 2221SOL    HW2 7288   2.110   1.482   4.609 -0.0951 -0.7004 -0.4800
 2222SOL     OW 7289   4.019   4.318   0.114 -0.2932  0.0730  0.3053
 2222SOL    HW1 7290   4.050   4.355   0.027 -1.8345  3.0840  0.9159
 2222SOL    HW2 7291   4.066   4.363   0.190 -0.3197 -1.1684  1.1015
 2223SOL     OW 7292   1.152   1.691   2.814  0.1290  0.3579  0.1245
 2223SOL    HW1 7293   1.153   1.781   2.770 -1.9560  0.6135  0.4954
 2223SOL    HW2 7294   1.165   1.620   2.745 -0.0916  0.8692 -0.4548
 2224SOL     OW 7295   4.390   0.180   2.721 -0.1846  0.2294 -0.2661
 2224SOL    HW1 7296   4.479   0.139   2.701  0.0929  0.8420 -0.2992
 2224SOL    HW2 7297   4.319   0.129   2.673  0.4700  1.8069 -3.1630
 2225SOL     OW 7298   0.139   2.437   1.240  0.0933  0.3716  0.5170
 2225SOL    HW1 7299   0.182   2.420   1.152  0.1904 -0.3534  0.6954
 2225SOL    HW2 7300   0.087   2.522   1.236  1.2908  1.1117  0.2102
 2226SOL     OW 7301   4.255   4.039   0.715  0.1059  0.3386 -0.3519
 2226SOL    HW1 7302   4.251   4.136   0.740  1.8835  0.8782 -1.9841
 2226SOL    HW2 7303   4.337   4.022   0.662  0.5094 -2.3575  1.0010
 2227SOL     OW 7304   3.260   1.115   2.565 -0.0702 -0.2571 -0.3110
 2227SOL    HW1 7305   3.201   1.193   2.545  1.5730  0.8661 -0.9380
 2227SOL    HW2 7306   3.319   1.137   2.643 -1.5698 -2.0068  1.4569
 2228SOL     OW 7307   2.385   0.545   3.556  0.2849 -0.0930 -0.1092
 2228SOL    HW1 7308   2.445   0.624   3.565 -1.2545  1.1829 -0.6104
 2228SOL    HW2 7309   2.304   0.558   3.613 -0.8633 -0.4260 -1.6091
 2229SOL     OW 7310   4.258   2.982   3.976 -0.1836  0.2312  0.6182
 2229SOL    HW1 7311   4.355   2.998   3.962 -0.3493  0.4245 -0.3526
 2229SOL    HW2 7312   4.212   2.970   3.888 -1.0466  0.1944  1.0557
 2230SOL     OW 7313   4.417   4.239   1.144 -0.8040  0.3957 -0.4469
 2230SOL    HW1 7314   4.451   4.295   1.067  0.1038  1.7159  0.8610
 2230SOL    HW2 7315   4.336   4.189   1.114 -0.3414  0.6783 -2.3436
 2231SOL     OW 7316   0.107   0.558   2.648 -0.1249 -0.5072 -0.2298
 2231SOL    HW1 7317   0.202   0.529   2.638  0.4836  1.7275 -1.5145
 2231SOL    HW2 7318   0.051   0.480   2.678  2.2959 -1.5418  1.9855
 2232SOL     OW 7319   4.376   0.457   0.344 -0.6470  0.6388  0.0518
 2232SOL    HW1 7320   4.451   0.521   0.360 -0.9262  0.6496  1.4606
 2232SOL    HW2 7321   4.356   0.453   0.246  1.7165 -0.0085 -0.4533
 2233SOL     OW 7322   4.147   0.466   2.992  0.2191 -0.4456 -0.1165
 2233SOL    HW1 7323   4.108   0.470   3.084  1.4561  0.4455  0.3980
 2233SOL    HW2 7324   4.247   0.461   2.999  0.5139  2.2512 -1.4140
 2234SOL     OW 7325   1.592   3.020   2.164 -0.5668 -0.6329 -0.2159
 2234SOL    HW1 7326   1.506   2.983   2.199  0.8267 -2.3814  1.5989
 2234SOL    HW2 7327   1.604   3.114   2.196 -1.7700 -0.3833 -0.4775
 2235SOL     OW 7328   2.442   0.614   4.120 -0.3369  0.1568 -0.1378
 2235SOL    HW1 7329   2.499   0.695   4.130 -0.2789  0.0221  0.6701
 2235SOL    HW2 7330   2.471   0.563   4.038  0.8714 -0.0456  0.3909
 2236SOL     OW 7331   2.296   1.779   0.173  0.1113 -0.2980  0.2069
 2236SOL    HW1 7332   2.334   1.753   0.084 -0.2769 -1.7006  0.4251
 2236SOL    HW2 7333   2.212   1.729   0.189  0.4135 -0.4139  1.5639
 2237SOL     OW 7334   2.873   3.307   4.853  0.3908 -0.2375  0.0385
 2237SOL    HW1 7335   2.889   3.367   4.774 -1.4909 -0.4911 -0.5991
 2237SOL    HW2 7336   2.823   3.226   4.823 -0.6901 -0.1660  1.5317
 2238SOL     OW 7337   2.713   4.332   1.643 -0.3100  0.6150 -0.5194
 2238SOL    HW1 7338   2.734   4.427   1.622  1.1102  0.5894  0.6255
 2238SOL    HW2 7339   2.798   4.280   1.653 -0.9209 -0.0181  2.1901
 2239SOL     OW 7340   3.330   3.371   1.554  0.2418  0.3844  0.0130
 2239SOL    HW1 7341   3.292   3.307   1.488  0.7196  2.5106 -2.4584
 2239SOL    HW2 7342   3.427   3.350   1.568  0.1133 -0.1412  0.1265
 2240SOL     OW 7343   0.584   3.667   0.794  0.5823  0.3753  0.2850
 2240SOL    HW1 7344   0.518   3.625   0.856 -0.1094  0.8074 -0.1467
 2240SOL    HW2 7345   0.677   3.646   0.825  0.2488  0.4651  1.3808
 2241SOL     OW 7346   1.186   4.583   1.101  0.1055  0.3388  0.1317
 2241SOL    HW1 7347   1.239   4.636   1.035 -0.5518 -0.5668 -1.1696
 2241SOL    HW2 7348   1.225   4.492   1.109 -0.4727  0.0925  0.1677
 2242SOL     OW 7349   3.163   3.040   3.270 -0.3293  0.0178  0.2188
 2242SOL    HW1 7350   3.149   2.941   3.277 -1.4657  0.2667  3.1216
 2242SOL    HW2 7351   3.258   3.061   3.291 -0.2526 -0.4295  0.3455
 2243SOL     OW 7352   3.518   1.492   4.600 -0.2338  0.9620  0.5549
 2243SOL    HW1 7353   3.438   1.550   4.617 -0.5626  0.3280  1.2620
 2243SOL    HW2 7354   3.573   1.532   4.527 -2.5170  0.1454 -1.7794
 2244SOL     OW 7355   1.035   0.454   3.373  0.2045 -0.3756 -0.2095
 2244SOL    HW1 7356   0.939   0.444   3.349  0.1835  0.8956 -0.7338
 2244SOL    HW2 7357   1.065   0.548   3.355  1.2496 -0.4389  1.0162
 2245SOL     OW 7358   2.213   3.480   1.790 -0.1952  0.4040  0.2175
 2245SOL    HW1 7359   2.119   3.513   1.807 -1.4411 -2.3314 -0.8038
 2245SOL    HW2 7360   2.234   3.405   1.852  1.2740  0.8366  0.2781
 2246SOL     OW 7361   0.243   4.541   2.973  0.3181  0.6216 -0.2959
 2246SOL    HW1 7362   0.338   4.555   3.001  0.5713  0.3652 -0.9992
 2246SOL    HW2 7363   0.226   4.587   2.886  0.5095 -1.3286 -1.4411
 2247SOL     OW 7364   2.482   2.524   3.949  0.6766  0.1300  0.3998
 2247SOL    HW1 7365   2.448   2.604   3.997 -2.1246 -0.9701  0.4283
 2247SOL    HW2 7366   2.515   2.456   4.015 -0.8273 -0.3727  0.6609
 2248SOL     OW 7367   2.642   1.267   3.304 -0.1564  0.0134 -0.2815
 2248SOL    HW1 7368   2.617   1.256   3.400 -0.1560 -1.7716 -0.4367
 2248SOL    HW2 7369   2.600   1.194   3.251 -2.3224  2.4366 -2.1283
 2249SOL     OW 7370   1.729   4.174   3.336  0.1476  0.1922 -0.5294
 2249SOL    HW1 7371   1.796   4.106   3.366 -0.5951  0.0378  0.8544
 2249SOL    HW2 7372   1.750   4.202   3.243  0.2423 -2.2420 -1.3082
 2250SOL     OW 7373   4.318   4.162   4.727 -0.1930 -0.0853  0.2221
 2250SOL    HW1 7374   4.403   4.113   4.745 -0.8069 -1.0273  0.6580
 2250SOL    HW2 7375   4.292   4.150   4.631 -0.7096 -1.2510  0.4895
 2251SOL     OW 7376   1.414   2.566   3.944  0.2841  0.0438 -0.1086
 2251SOL    HW1 7377   1.493   2.518   3.982 -0.7145 -0.7380  1.0435
 2251SOL    HW2 7378   1.444   2.653   3.905  1.5126  0.4044  1.5423
 2252SOL     OW 7379   0.812   1.599   2.687  0.0525 -0.3300  0.3023
 2252SOL    HW1 7380   0.855   1.525   2.635  0.7315  0.6778 -0.6117
 2252SOL    HW2 7381   0.731   1.564   2.734 -0.0080 -1.4993 -0.6281
 2253SOL     OW 7382   1.652   4.653   3.754 -0.5956  0.4358  0.0653
 2253SOL    HW1 7383   1.593   4.719   3.801  0.5665  1.4337  0.1653
 2253SOL    HW2 7384   1.623   4.646   3.659 -2.0175 -0.4741  0.5347
 2254SOL     OW 7385   4.410   2.811   2.160  0.0408  0.2461  0.7201
 2254SOL    HW1 7386   4.364   2.896   2.133  2.4532  1.3262 -0.2793
 2254SOL    HW2 7387   4.486   2.832   2.222  0.7949 -1.1743  0.3231
 2255SOL     OW 7388   3.435   4.158   4.076  0.1257  0.1499  0.2172
 2255SOL    HW1 7389   3.383   4.096   4.134 -1.7994  1.2397 -0.2403
 2255SOL    HW2 7390   3.389   4.167   3.988 -0.0371  2.6593  0.4910
 2256SOL     OW 7391   0.731   2.673   3.532 -0.8569  0.6191 -0.1055
 2256SOL    HW1 7392   0.816   2.721   3.552  1.6359 -3.0263 -0.9460
 2256SOL    HW2 7393   0.707   2.686   3.436  0.5333 -0.6910 -0.6719
 2257SOL     OW 7394   4.159   3.970   2.877 -0.0640  1.1873  0.2825
 2257SOL    HW1 7395   4.202   4.049   2.834 -0.5420  0.0703 -2.4060
 2257SOL    HW2 7396   4.182   3.887   2.826  0.2488 -0.4497  2.8925
 2258SOL     OW 7397   0.363   0.935   0.740  0.3101 -0.4049 -1.0416
 2258SOL    HW1 7398   0.307   0.883   0.675  0.8813 -2.1486 -0.2133
 2258SOL    HW2 7399   0.349   1.033   0.725 -3.2120 -0.7224 -0.6518
 2259SOL     OW 7400   3.090   4.233   3.925  0.1310  0.3030 -0.0138
 2259SOL    HW1 7401   3.035   4.298   3.873  1.6756  0.6654 -1.3046
 2259SOL    HW2 7402   3.075   4.246   4.023 -3.4688 -0.9051 -0.2512
 2260SOL     OW 7403   3.761   0.091   2.505  0.1728  0.0682 -0.0493
 2260SOL    HW1 7404   3.705   0.173   2.494 -1.3670 -1.0446 -0.9880
 2260SOL    HW2 7405   3.726   0.037   2.581  2.3246  1.1138  1.7772
 2261SOL     OW 7406   2.711   4.790   4.803 -0.5858  0.2120  0.0591
 2261SOL    HW1 7407   2.757   4.731   4.869 -0.1692  0.1250 -0.3001
 2261SOL    HW2 7408   2.676   4.734   4.727  1.5055  0.5772 -1.2730
 2262SOL     OW 7409   3.855   2.314   4.281  0.4391  0.3481  0.5582
 2262SOL    HW1 7410   3.820   2.367   4.358 -0.1830  1.1842 -0.2754
 2262SOL    HW2 7411   3.812   2.223   4.281  0.8238  0.1541  1.4710
 2263SOL     OW 7412   1.778   0.871   4.780 -0.1970 -0.1177 -0.2034
 2263SOL    HW1 7413   1.785   0.832   4.689 -0.6795 -1.5855  0.3649
 2263SOL    HW2 7414   1.686   0.855   4.816 -0.0579  0.5673  0.4908
 2264SOL     OW 7415   2.112   4.320   0.904  0.7065  0.1319  0.0836
 2264SOL    HW1 7416   2.091   4.406   0.857  1.0497 -0.0936 -0.4803
 2264SOL    HW2 7417   2.059   4.315   0.989  0.8924  1.0294  0.2605
 2265SOL     OW 7418   0.547   4.349   0.823  0.0209  0.5809 -0.5368
 2265SOL    HW1 7419   0.543   4.427   0.885  0.5078 -0.3414  0.7071
 2265SOL    HW2 7420   0.642   4.328   0.801  0.0253 -0.6999  0.5577
 2266SOL     OW 7421   2.826   2.547   1.112 -0.3196  0.1153  0.0279
 2266SOL    HW1 7422   2.893   2.504   1.051  0.9534  1.7232  0.2380
 2266SOL    HW2 7423   2.734   2.522   1.082  0.3137 -2.1742 -0.2599
 2267SOL     OW 7424   3.914   4.348   2.666  0.0675 -0.1486  0.1127
 2267SOL    HW1 7425   3.996   4.331   2.611 -0.3777  1.1242 -1.0076
 2267SOL    HW2 7426   3.834   4.313   2.618 -0.4673  2.0318 -0.6975
 2268SOL     OW 7427   3.032   3.294   3.204 -0.6891  0.5545  0.1758
 2268SOL    HW1 7428   3.057   3.201   3.231 -1.8122  0.6393  1.6640
 2268SOL    HW2 7429   3.113   3.343   3.173  0.4185 -0.1003  1.9152
 2269SOL     OW 7430   4.671   2.050   4.781  0.0757 -0.0136  0.1386
 2269SOL    HW1 7431   4.575   2.032   4.801  0.1643  1.6975  2.4511
 2269SOL    HW2 7432   4.678   2.135   4.729  0.3851  0.2649  0.6369
 2270SOL     OW 7433   4.728   0.982   3.118 -0.0504 -0.3675 -0.2818
 2270SOL    HW1 7434   4.691   1.018   3.032 -0.8541  0.7525  0.5095
 2270SOL    HW2 7435   4.735   1.056   3.185 -1.4348 -1.5998  1.2945
 2271SOL     OW 7436   0.625   2.949   0.004  0.0426 -0.2183 -0.5553
 2271SOL    HW1 7437   0.674   2.863  -0.010  3.5316  1.4815  0.1591
 2271SOL    HW2 7438   0.594   2.984  -0.085 -1.5189 -2.1395 -0.8494
 2272SOL     OW 7439   2.560   1.417   2.840 -0.0799  0.1217 -0.3137
 2272SOL    HW1 7440   2.593   1.419   2.934  0.5215 -0.5690 -0.5096
 2272SOL    HW2 7441   2.556   1.511   2.804  0.2806  0.3317  0.1904
 2273SOL     OW 7442   4.692   1.834   0.952 -0.0092 -0.0447 -0.0559
 2273SOL    HW1 7443   4.737   1.755   0.994  2.6655  1.1309 -0.5060
 2273SOL    HW2 7444   4.700   1.913   1.013 -2.0354  0.1057  0.0802
 2274SOL     OW 7445   4.003   4.040   0.066 -0.1239  0.6983  0.4912
 2274SOL    HW1 7446   4.097   4.008   0.059  0.1519  1.1218  2.0304
 2274SOL    HW2 7447   4.001   4.131   0.106 -1.2034  0.6709  0.5289
 2275SOL     OW 7448   3.958   2.103   3.170  0.3857 -0.2210  0.7734
 2275SOL    HW1 7449   3.963   2.104   3.269 -0.7667 -0.1257  0.8394
 2275SOL    HW2 7450   3.864   2.086   3.141  0.1989  2.1824 -0.3003
 2276SOL     OW 7451   4.671   3.485   3.491  0.4020 -0.1103  0.0282
 2276SOL    HW1 7452   4.649   3.574   3.530 -1.1899 -0.0739 -0.8379
 2276SOL    HW2 7453   4.613   3.415   3.533  2.1930 -0.9091  1.2792
 2277SOL     OW 7454   0.828   2.892   3.147  0.6388 -0.2218 -0.7624
 2277SOL    HW1 7455   0.857   2.887   3.051  1.8650  2.7832 -0.6428
 2277SOL    HW2 7456   0.908   2.909   3.205 -0.3007 -0.4221  0.6345
 2278SOL     OW 7457   1.906   2.368   3.544 -0.3165  0.0113 -0.4193
 2278SOL    HW1 7458   1.953   2.281   3.558 -0.4401 -0.0646 -0.4763
 2278SOL    HW2 7459   1.894   2.384   3.446 -0.5261 -0.0308 -0.4002
 2279SOL     OW 7460   3.975   4.493   3.754 -0.4630  0.6510 -0.4613
 2279SOL    HW1 7461   4.021   4.414   3.714  1.3367  1.1012  0.5676
 2279SOL    HW2 7462   3.891   4.513   3.704  0.5124 -0.1852 -2.5232
 2280SOL     OW 7463   1.298   4.726   1.917 -0.7572 -0.4985 -0.1466
 2280SOL    HW1 7464   1.221   4.789   1.917 -0.1062  0.3331  0.7123
 2280SOL    HW2 7465   1.341   4.727   2.008  1.3970  0.4940 -1.1164
 2281SOL     OW 7466   4.530   3.990   0.590  0.2078  0.1679 -0.5219
 2281SOL    HW1 7467   4.537   3.923   0.664 -0.7245  0.5677 -0.0581
 2281SOL    HW2 7468   4.621   4.007   0.552  0.4039 -1.6431 -0.9140
 2282SOL     OW 7469   1.235   3.979   0.458  1.1943  0.2782  0.5037
 2282SOL    HW1 7470   1.311   4.037   0.430  0.4180  1.2240  0.3009
 2282SOL    HW2 7471   1.149   4.028   0.446  0.3023 -1.6409 -1.7344
 2283SOL     OW 7472   2.960   3.385   1.447  0.3661  1.0066 -0.1032
 2283SOL    HW1 7473   2.903   3.307   1.419  2.4891 -0.5276 -0.3881
 2283SOL    HW2 7474   2.980   3.379   1.544  0.8994  0.9400 -0.2146
 2284SOL     OW 7475   2.790   4.673   3.541  0.5873 -0.0122  0.2807
 2284SOL    HW1 7476   2.890   4.675   3.532  1.1031  0.1380  4.1870
 2284SOL    HW2 7477   2.751   4.617   3.468  3.2919  1.1775 -2.2989
 2285SOL     OW 7478   2.088   1.644   0.278  0.1361 -0.0575  0.6055
 2285SOL    HW1 7479   2.037   1.559   0.265  0.7981 -0.3992  0.1346
 2285SOL    HW2 7480   2.078   1.675   0.372 -0.7274 -0.2463  0.5861
 2286SOL     OW 7481   1.858   4.316   1.397  0.1169  0.0225  0.2442
 2286SOL    HW1 7482   1.762   4.344   1.403 -0.3824 -1.6170  0.3541
 2286SOL    HW2 7483   1.913   4.376   1.454 -0.8610  0.9178  0.2806
 2287SOL     OW 7484   2.194   1.739   3.227  0.3478  0.6225  0.3495
 2287SOL    HW1 7485   2.283   1.707   3.261 -0.1174 -0.0398  0.9703
 2287SOL    HW2 7486   2.206   1.782   3.138  1.1071 -0.6564 -0.1923
 2288SOL     OW 7487   4.122   1.525   2.186 -0.0294  0.0855  0.8436
 2288SOL    HW1 7488   4.066   1.484   2.114 -1.2990  1.7995  0.7775
 2288SOL    HW2 7489   4.206   1.561   2.146 -0.0919 -0.1911  0.4559
 2289SOL     OW 7490   3.186   1.926   4.762 -0.2089 -0.5883  0.1193
 2289SOL    HW1 7491   3.262   1.862   4.751 -0.6382 -1.4734  1.9864
 2289SOL    HW2 7492   3.176   1.950   4.858 -0.0908  2.3173 -0.5032
 2290SOL     OW 7493   2.949   1.231   2.617 -0.4194 -0.0250  0.4318
 2290SOL    HW1 7494   3.027   1.244   2.556  0.2910 -0.1043  1.3065
 2290SOL    HW2 7495   2.916   1.320   2.648 -1.4400  0.0797 -0.8425
 2291SOL     OW 7496   3.272   4.574   3.310  0.2106  0.3599 -0.1880
 2291SOL    HW1 7497   3.324   4.634   3.250 -0.2708  1.1285  0.1455
 2291SOL    HW2 7498   3.258   4.485   3.265  1.3793  0.3033 -0.4667
 2292SOL     OW 7499   2.536   1.932   1.171  0.2845  0.1100 -0.1493
 2292SOL    HW1 7500   2.492   1.846   1.146 -0.7771  0.5628  0.0640
 2292SOL    HW2 7501   2.633   1.917   1.190 -0.0295 -1.1445  0.5293
 2293SOL     OW 7502   2.367   4.775   3.706  0.1846  0.0726 -0.2309
 2293SOL    HW1 7503   2.369   4.681   3.674 -1.4244 -0.3043  0.6591
 2293SOL    HW2 7504   2.459   4.814   3.703  0.9419 -1.6596 -0.1867
 2294SOL     OW 7505   4.330   0.075   4.165  0.1745  0.0943  0.5471
 2294SOL    HW1 7506   4.259   0.135   4.204  1.0727  1.3274  0.3264
 2294SOL    HW2 7507   4.335   0.090   4.066  0.1181 -0.6680  0.4257
 2295SOL     OW 7508   3.454   3.249   2.413  0.2310  0.6019 -0.3653
 2295SOL    HW1 7509   3.453   3.150   2.426 -1.2013  0.2631 -2.5062
 2295SOL    HW2 7510   3.369   3.288   2.448  1.0347  1.2028  1.0003
 2296SOL     OW 7511   1.418   1.036   2.361 -0.6232 -0.5885  0.0632
 2296SOL    HW1 7512   1.328   1.079   2.362 -0.6140 -0.5223 -0.9815
 2296SOL    HW2 7513   1.414   0.950   2.310 -0.5051 -1.5607  1.6135
 2297SOL     OW 7514   1.387   3.488   2.166  0.5972 -0.0645 -0.3048
 2297SOL    HW1 7515   1.443   3.551   2.219 -0.3167 -0.1749  0.8215
 2297SOL    HW2 7516   1.292   3.521   2.164  0.6556  0.1283 -2.1875
 2298SOL     OW 7517   0.816   0.843   4.496 -0.0804  0.0129 -0.2897
 2298SOL    HW1 7518   0.745   0.869   4.562  0.5168  1.4248 -0.1701
 2298SOL    HW2 7519   0.849   0.751   4.518 -1.0165 -0.1824  0.3855
 2299SOL     OW 7520   1.812   1.067   1.956 -0.2201 -0.2329  0.0567
 2299SOL    HW1 7521   1.718   1.093   1.936 -0.3520 -0.8329 -0.1084
 2299SOL    HW2 7522   1.867   1.150   1.970 -0.9188  0.1008  0.8789
 2300SOL     OW 7523   0.690   2.205   2.571 -0.2495 -0.5672 -0.1436
 2300SOL    HW1 7524   0.745   2.204   2.654 -1.0006  2.2598  0.5247
 2300SOL    HW2 7525   0.750   2.214   2.491  0.4393 -2.6131  0.0870
 2301SOL     OW 7526   2.868   1.835   2.220  0.5840 -0.4149  0.1088
 2301SOL    HW1 7527   2.780   1.790   2.239  0.5474  0.0797  1.1932
 2301SOL    HW2 7528   2.852   1.931   2.200  1.0675  0.4483  3.3779
 2302SOL     OW 7529   0.695   0.536   1.318  0.0437 -0.3245 -0.5029
 2302SOL    HW1 7530   0.643   0.485   1.249  1.4666 -0.1266 -1.7634
 2302SOL    HW2 7531   0.737   0.472   1.382  0.7297 -0.6804 -1.2901
 2303SOL     OW 7532   2.293   0.872   4.146 -0.0202 -0.0952 -0.3217
 2303SOL    HW1 7533   2.389   0.872   4.117  0.1099  1.1793  0.0622
 2303SOL    HW2 7534   2.281   0.809   4.222  0.9354  1.1580  0.9050
 2304SOL     OW 7535   2.609   0.828   4.178  0.1964  0.2350 -0.1280
 2304SOL    HW1 7536   2.621   0.876   4.265  0.6809  0.8750 -0.5392
 2304SOL    HW2 7537   2.696   0.787   4.151 -0.0040 -0.1360 -0.2101
 2305SOL     OW 7538   4.877   4.542   1.656  0.3237 -0.5050  0.3225
 2305SOL    HW1 7539   4.921   4.631   1.643 -0.1350 -0.2822  0.2580
 2305SOL    HW2 7540   4.922   4.473   1.599  2.0564 -0.7860  1.9289
 2306SOL     OW 7541   3.133   3.219   0.015 -0.2461 -0.1584 -0.2856
 2306SOL    HW1 7542   3.043   3.259   0.028 -0.1079 -0.5182  2.4552
 2306SOL    HW2 7543   3.124   3.121  -0.001 -0.3624 -0.1296 -0.3916
 2307SOL     OW 7544   2.537   2.335   4.127  0.5742 -0.3087  0.2649
 2307SOL    HW1 7545   2.630   2.304   4.147 -0.6346 -3.1574  2.1917
 2307SOL    HW2 7546   2.473   2.260   4.142 -2.0757  1.4953 -1.1455
 2308SOL     OW 7547   0.110   2.470   4.440 -0.2472 -0.1386  0.2172
 2308SOL    HW1 7548   0.107   2.548   4.377 -3.4111  0.2085  0.6390
 2308SOL    HW2 7549   0.059   2.492   4.523 -0.4886 -2.3525  0.7258
 2309SOL     OW 7550   4.030   2.392   1.197 -0.4905 -0.6133  0.0513
 2309SOL    HW1 7551   4.071   2.452   1.129 -1.1064  0.1544  0.3409
 2309SOL    HW2 7552   3.952   2.345   1.158 -1.1320  0.1819  0.3366
 2310SOL     OW 7553   1.247   4.600   0.682 -0.7409  0.0340 -0.4926
 2310SOL    HW1 7554   1.188   4.641   0.613  0.0059  0.6933 -0.7580
 2310SOL    HW2 7555   1.339   4.589   0.644 -0.1123  1.1562  0.6558
 2311SOL     OW 7556   3.048   1.631   4.029 -0.3770  0.0254  0.1131
 2311SOL    HW1 7557   3.058   1.614   4.127 -3.3283  0.0075  0.4944
 2311SOL    HW2 7558   3.008   1.721   4.015 -0.0291  0.0065 -1.0944
 2312SOL     OW 7559   4.622   3.188   3.664  0.3173 -0.1120 -0.0182
 2312SOL    HW1 7560   4.673   3.177   3.579  0.2556 -1.1537  0.0677
 2312SOL    HW2 7561   4.602   3.098   3.703 -0.7888  0.3020  0.4247
 2313SOL     OW 7562   4.289   1.005   1.544  0.2177 -0.0129  0.4230
 2313SOL    HW1 7563   4.260   1.101   1.546 -0.1201 -0.1141  0.5626
 2313SOL    HW2 7564   4.378   0.996   1.588  0.3552  0.2697  0.2120
 2314SOL     OW 7565   0.610   1.355   3.697  0.7096  0.1683 -0.5599
 2314SOL    HW1 7566   0.511   1.356   3.691  0.7262  1.0416 -0.8793
 2314SOL    HW2 7567   0.646   1.446   3.674  1.5611 -0.0487 -0.1356
 2315SOL     OW 7568   4.104   3.037   1.762  0.3217  0.4045  0.1373
 2315SOL    HW1 7569   4.136   3.059   1.669  0.7243 -2.9052 -0.6675
 2315SOL    HW2 7570   4.023   3.091   1.784  0.9513  2.1721 -1.6244
 2316SOL     OW 7571   3.298   0.310   4.742 -0.3422 -0.1392  0.1421
 2316SOL    HW1 7572   3.237   0.389   4.728  1.9669  2.0647  1.5736
 2316SOL    HW2 7573   3.390   0.333   4.709 -0.2576 -3.5568 -2.4854
 2317SOL     OW 7574   2.199   4.004   3.366  0.3626  0.2098 -0.5406
 2317SOL    HW1 7575   2.142   3.992   3.285  0.9691  0.2022 -0.9726
 2317SOL    HW2 7576   2.186   3.926   3.428 -0.3508  0.3788 -0.4717
 2318SOL     OW 7577   1.926   2.601   3.654  0.4075 -0.4275  0.3922
 2318SOL    HW1 7578   1.915   2.507   3.622 -2.1407  0.4520 -1.7123
 2318SOL    HW2 7579   1.847   2.625   3.711  0.2261  0.8699 -0.3736
 2319SOL     OW 7580   4.462   0.585   1.315 -0.3901  0.1466 -0.0922
 2319SOL    HW1 7581   4.376   0.637   1.316 -0.3602  0.1929  0.2407
 2319SOL    HW2 7582   4.454   0.506   1.376 -0.5708 -0.4699 -0.8926
 2320SOL     OW 7583   1.868   3.069   1.979 -0.2313  0.5579 -0.2903
 2320SOL    HW1 7584   1.912   3.129   2.046 -1.7471  1.1416  0.2399
 2320SOL    HW2 7585   1.875   2.974   2.009  0.6141  0.6467 -0.2015
 2321SOL     OW 7586   0.336   1.254   3.244  0.0992 -0.4839 -0.2746
 2321SOL    HW1 7587   0.384   1.233   3.159  0.6804  0.4247 -0.1857
 2321SOL    HW2 7588   0.327   1.353   3.253  0.3121 -0.5601  0.8777
 2322SOL     OW 7589   2.839   3.695   3.029  0.1182  0.3842 -0.9363
 2322SOL    HW1 7590   2.918   3.649   3.070 -0.6346  0.4319  0.6670
 2322SOL    HW2 7591   2.850   3.699   2.930  0.9354 -1.8560 -0.9892
 2323SOL     OW 7592   3.449   4.494   0.477  0.2989  0.3252  0.3712
 2323SOL    HW1 7593   3.381   4.560   0.445 -0.1323  0.3252  1.2549
 2323SOL    HW2 7594   3.474   4.432   0.403 -0.0787  0.8187 -0.1742
 2324SOL     OW 7595   2.332   2.457   4.343  0.0253 -0.4321  0.3439
 2324SOL    HW1 7596   2.253   2.433   4.286  1.2383 -1.3399 -1.0090
 2324SOL    HW2 7597   2.321   2.551   4.376 -0.9769 -0.0580 -0.9612
 2325SOL     OW 7598   2.769   2.884   1.953 -0.3591 -0.2241 -0.3524
 2325SOL    HW1 7599   2.802   2.976   1.974 -0.6865 -0.1423 -0.1950
 2325SOL    HW2 7600   2.845   2.830   1.916 -0.3336  0.3289 -1.1565
 2326SOL     OW 7601   3.324   3.733   4.090  0.5348  0.4029  0.0979
 2326SOL    HW1 7602   3.287   3.640   4.082  0.6051  0.4802 -1.5410
 2326SOL    HW2 7603   3.400   3.733   4.154  1.0745 -0.8571 -0.5008
 2327SOL     OW 7604   4.576   4.678   4.295  0.1083 -0.8021  0.8351
 2327SOL    HW1 7605   4.568   4.773   4.265  1.0766 -1.0343 -0.2245
 2327SOL    HW2 7606   4.490   4.649   4.337  0.4045  1.0965  2.9126
 2328SOL     OW 7607   3.008   2.847   1.487  0.5471  0.6665 -0.5175
 2328SOL    HW1 7608   3.081   2.898   1.533 -0.5230  1.6734  0.1482
 2328SOL    HW2 7609   2.980   2.769   1.543  0.4642  0.8466 -0.3067
 2329SOL     OW 7610   0.209   0.403   3.851  0.0971 -0.7252 -0.0129
 2329SOL    HW1 7611   0.190   0.495   3.888  0.4104 -0.0137 -1.5255
 2329SOL    HW2 7612   0.290   0.366   3.895 -0.2947 -0.4986  0.9543
 2330SOL     OW 7613   0.381   3.591   0.979 -0.4969 -0.3990 -0.9047
 2330SOL    HW1 7614   0.329   3.676   0.971 -1.2629 -0.7258  0.3812
 2330SOL    HW2 7615   0.324   3.519   1.018  0.0447 -1.6262 -2.2625
 2331SOL     OW 7616   3.403   0.849   0.244  0.2271  0.1977  0.4264
 2331SOL    HW1 7617   3.439   0.911   0.175 -1.4010 -0.2637 -0.8995
 2331SOL    HW2 7618   3.401   0.895   0.333  0.6119  1.4446 -0.1954
 2332SOL     OW 7619   1.894   2.451   2.979 -0.2894  0.6940 -0.2795
 2332SOL    HW1 7620   1.971   2.398   3.012 -1.5695 -0.7188  0.5789
 2332SOL    HW2 7621   1.830   2.390   2.931 -0.8472  1.8340 -1.0290
 2333SOL     OW 7622   3.454   0.877   3.358  0.2743  0.0660 -0.1821
 2333SOL    HW1 7623   3.534   0.906   3.411 -0.6744 -0.0750  1.4111
 2333SOL    HW2 7624   3.473   0.789   3.315  0.8292 -0.1771  0.5323
 2334SOL     OW 7625   2.549   4.755   0.984 -0.1273  0.2084 -0.6402
 2334SOL    HW1 7626   2.486   4.830   1.004  0.0281  0.1420  0.1172
 2334SOL    HW2 7627   2.500   4.680   0.940 -0.7005 -0.0691  0.4416
 2335SOL     OW 7628   2.393   3.214   0.659  0.5964 -0.0271  0.0018
 2335SOL    HW1 7629   2.309   3.161   0.645 -1.3348  2.2595  1.8931
 2335SOL    HW2 7630   2.419   3.209   0.755  0.2564  2.4273  0.2804
 2336SOL     OW 7631   4.464   0.998   2.728  0.1950 -0.5342  0.2699
 2336SOL    HW1 7632   4.460   1.068   2.800  0.5435 -0.3734  0.1354
 2336SOL    HW2 7633   4.428   1.036   2.643 -0.5011 -0.8195  0.4305
 2337SOL     OW 7634   3.490   0.002   0.637  0.3330 -0.4686 -0.3593
 2337SOL    HW1 7635   3.493   0.044   0.547 -1.8571 -0.2381 -0.3741
 2337SOL    HW2 7636   3.545   0.056   0.701  1.4732 -0.3402 -1.4109
 2338SOL     OW 7637   3.250   4.705   0.482  0.1275  0.1494 -0.1031
 2338SOL    HW1 7638   3.310   4.770   0.436  0.9180 -0.3512  0.1953
 2338SOL    HW2 7639   3.218   4.744   0.567 -2.6696  1.7513 -1.7587
 2339SOL     OW 7640   1.187   4.045   1.847  0.7274  0.6134 -0.6980
 2339SOL    HW1 7641   1.108   3.999   1.807  0.2885  0.7826 -0.0436
 2339SOL    HW2 7642   1.157   4.101   1.925  1.3437  1.4954 -1.0797
 2340SOL     OW 7643   0.881   2.334   3.569 -0.2696  0.1444 -0.4365
 2340SOL    HW1 7644   0.882   2.356   3.667  1.2673 -0.7295 -0.2115
 2340SOL    HW2 7645   0.795   2.363   3.529 -0.5352  1.4298  0.9651
 2341SOL     OW 7646   0.568   0.741   1.406  0.7269  0.4166  0.0824
 2341SOL    HW1 7647   0.528   0.735   1.498  0.0733 -1.2389 -0.2628
 2341SOL    HW2 7648   0.625   0.660   1.391  0.3970  0.4025 -1.1506
 2342SOL     OW 7649   0.452   4.243   0.039  0.2887 -0.0088  0.1118
 2342SOL    HW1 7650   0.393   4.323   0.030 -0.8678 -0.8767 -0.2663
 2342SOL    HW2 7651   0.419   4.185   0.114  0.6496 -0.5040 -0.1046
 2343SOL     OW 7652   4.334   1.746   3.831 -0.5545 -0.5212  0.3568
 2343SOL    HW1 7653   4.283   1.664   3.802  1.2600 -1.2812 -0.8589
 2343SOL    HW2 7654   4.353   1.740   3.929 -1.8686 -0.7201  0.6236
 2344SOL     OW 7655   0.561   2.729   2.446  0.1254 -0.0965  0.2481
 2344SOL    HW1 7656   0.626   2.669   2.400 -0.0739  0.4245 -0.7433
 2344SOL    HW2 7657   0.561   2.819   2.402 -1.1422 -0.0356  0.3317
 2345SOL     OW 7658   2.979   1.465   0.219 -0.0027 -0.1675 -0.0017
 2345SOL    HW1 7659   2.887   1.458   0.257 -0.0685 -0.4146 -0.1983
 2345SOL    HW2 7660   3.010   1.374   0.191  0.2392 -0.0623 -0.0813
 2346SOL     OW 7661   2.505   2.484   2.534 -0.3022 -0.0267 -0.3835
 2346SOL    HW1 7662   2.596   2.498   2.574  0.6263 -1.9598 -1.6540
 2346SOL    HW2 7663   2.498   2.533   2.448  0.0370 -0.8743 -0.9099
 2347SOL     OW 7664   2.960   0.772   0.183 -0.1297 -0.6789 -0.2836
 2347SOL    HW1 7665   3.024   0.842   0.150  0.1356 -0.8389 -0.1114
 2347SOL    HW2 7666   2.968   0.690   0.127 -0.4057 -0.5900 -0.4543
 2348SOL     OW 7667   1.935   2.009   2.358  0.0195 -0.6057  0.7010
 2348SOL    HW1 7668   1.905   2.082   2.296 -0.5479 -0.9143  0.6000
 2348SOL    HW2 7669   1.984   2.048   2.435  0.2032 -0.1647  0.3650
 2349SOL     OW 7670   1.998   1.925   0.853 -0.5922  0.1188 -0.1340
 2349SOL    HW1 7671   1.940   1.887   0.781  1.2753  0.3511 -1.8167
 2349SOL    HW2 7672   2.077   1.971   0.813  0.9405 -0.4067  2.0866
 2350SOL     OW 7673   4.897   2.063   1.432  0.2385 -0.0508  0.4275
 2350SOL    HW1 7674   4.860   2.151   1.401  1.1716  0.4495  0.6876
 2350SOL    HW2 7675   4.822   2.002   1.457 -0.4150  0.9940  1.1125
 2351SOL     OW 7676   4.002   3.520   0.693  0.8724 -0.1125 -0.2451
 2351SOL    HW1 7677   4.001   3.483   0.600  2.8443  0.2410 -0.4388
 2351SOL    HW2 7678   4.040   3.612   0.692  0.8562 -0.0758  0.9232
 2352SOL     OW 7679   1.495   1.688   2.141 -0.2519 -0.2187  0.5691
 2352SOL    HW1 7680   1.467   1.743   2.063  1.3111 -0.0444  0.1026
 2352SOL    HW2 7681   1.467   1.593   2.127 -1.7165  0.1628  0.7369
 2353SOL     OW 7682   2.727   4.299   2.534  0.1889  0.5313  0.1944
 2353SOL    HW1 7683   2.827   4.302   2.531  0.1928  1.1014  0.6974
 2353SOL    HW2 7684   2.692   4.382   2.578 -0.4857  0.0883  0.5218
 2354SOL     OW 7685   2.839   3.042   4.693  0.5652 -0.4220 -0.4439
 2354SOL    HW1 7686   2.794   2.954   4.679  1.4093 -0.8858 -0.3428
 2354SOL    HW2 7687   2.936   3.027   4.712  0.6452  0.5155 -0.0417
 2355SOL     OW 7688   2.241   4.051   3.953  0.0728  0.2302 -0.2219
 2355SOL    HW1 7689   2.277   4.047   4.047 -1.7777  0.1267  0.5189
 2355SOL    HW2 7690   2.232   3.959   3.917 -0.9585  0.1452  0.2186
 2356SOL     OW 7691   2.472   3.354   3.808  0.4072 -0.2619  0.1049
 2356SOL    HW1 7692   2.550   3.403   3.848 -0.6832  1.3669  0.3184
 2356SOL    HW2 7693   2.482   3.352   3.708  1.1826 -0.9206  0.1803
 2357SOL     OW 7694   0.458   1.630   3.597 -0.1468 -0.1991  0.0714
 2357SOL    HW1 7695   0.547   1.600   3.632 -0.2864  0.4013  0.9877
 2357SOL    HW2 7696   0.396   1.551   3.594  0.2112 -0.4857  0.1051
 2358SOL     OW 7697   4.641   1.930   4.173  0.0330 -0.3178 -0.6533
 2358SOL    HW1 7698   4.726   1.878   4.160  0.1219  0.2857 -3.0750
 2358SOL    HW2 7699   4.658   2.008   4.233  0.4876 -1.6766  1.0643
 2359SOL     OW 7700   0.143   4.108   4.569 -0.3042 -0.8577  0.2107
 2359SOL    HW1 7701   0.045   4.098   4.585 -0.3068 -1.0590  0.0786
 2359SOL    HW2 7702   0.186   4.018   4.566 -0.2870 -0.8326 -0.7577
 2360SOL     OW 7703   2.178   0.327   1.041  0.3384  0.0732 -0.0100
 2360SOL    HW1 7704   2.132   0.358   0.958  0.3584 -1.4776 -0.6304
 2360SOL    HW2 7705   2.172   0.228   1.048  1.1572  0.0888  1.3626
 2361SOL     OW 7706   2.622   4.847   3.672  0.0019 -0.6804  0.3424
 2361SOL    HW1 7707   2.672   4.922   3.715 -1.1702  0.0074  0.5400
 2361SOL    HW2 7708   2.686   4.791   3.619  1.1571 -0.4498  1.4212
 2362SOL     OW 7709   2.679   4.408   4.429 -0.2080 -0.4683  0.2899
 2362SOL    HW1 7710   2.741   4.334   4.456 -1.0777 -1.0989  0.6219
 2362SOL    HW2 7711   2.722   4.464   4.359  0.5123 -1.2374  0.1022
 2363SOL     OW 7712   4.843   1.257   4.085  0.0695  0.3650  0.0392
 2363SOL    HW1 7713   4.779   1.202   4.031 -0.1554  0.1270  0.5471
 2363SOL    HW2 7714   4.890   1.198   4.151  1.4315  0.3628 -0.8774
 2364SOL     OW 7715   3.296   1.784   0.198  0.4463  0.3953 -0.5494
 2364SOL    HW1 7716   3.274   1.865   0.143  0.4600  0.5403 -0.3429
 2364SOL    HW2 7717   3.381   1.799   0.247 -0.0450  0.6404  0.2447
 2365SOL     OW 7718   4.611   3.721   3.595  0.2367 -0.4171 -0.0091
 2365SOL    HW1 7719   4.681   3.790   3.577  0.4550  0.0405  2.3011
 2365SOL    HW2 7720   4.522   3.765   3.599  0.1803 -0.5264 -0.0705
 2366SOL     OW 7721   1.013   0.305   3.804  0.6524  0.2686  0.2865
 2366SOL    HW1 7722   0.961   0.220   3.808 -1.2164  1.3709  0.7097
 2366SOL    HW2 7723   1.098   0.290   3.754 -0.2191 -1.5469 -0.7399
 2367SOL     OW 7724   2.238   0.599   2.101  0.2727 -0.1754  0.4245
 2367SOL    HW1 7725   2.302   0.675   2.100 -0.0107  0.1215 -2.6701
 2367SOL    HW2 7726   2.155   0.625   2.052 -0.7113 -1.8086  1.1408
 2368SOL     OW 7727   3.813   0.556   3.467  0.5604  0.3857  0.1976
 2368SOL    HW1 7728   3.793   0.471   3.418  0.2895  1.1078 -0.9839
 2368SOL    HW2 7729   3.847   0.624   3.402  0.5437  1.2548  1.0884
 2369SOL     OW 7730   3.099   2.571   3.680 -0.0588  0.0119  0.0782
 2369SOL    HW1 7731   3.065   2.588   3.772 -0.7759  1.9445 -0.4763
 2369SOL    HW2 7732   3.166   2.642   3.655  0.7854 -0.9850 -0.5831
 2370SOL     OW 7733   2.140   4.711   0.298 -0.4820  0.3462  0.3636
 2370SOL    HW1 7734   2.172   4.652   0.372 -2.2658 -1.9687 -0.6047
 2370SOL    HW2 7735   2.088   4.787   0.337 -0.5217 -0.2592  1.5243
 2371SOL     OW 7736   2.326   2.409   0.396 -0.3340 -0.0958  0.6361
 2371SOL    HW1 7737   2.342   2.329   0.338  1.5077  1.1366 -0.6958
 2371SOL    HW2 7738   2.320   2.490   0.339 -3.2123  0.6821  1.8694
 2372SOL     OW 7739   2.414   1.473   3.211  0.0002  0.0023 -1.0677
 2372SOL    HW1 7740   2.340   1.414   3.242  0.2440  0.2630  0.0740
 2372SOL    HW2 7741   2.500   1.421   3.210  0.0747  0.1176 -0.8327
 2373SOL     OW 7742   2.617   2.538   4.339  0.0326  0.6708  0.2840
 2373SOL    HW1 7743   2.533   2.541   4.285  0.6856 -1.9960 -1.0363
 2373SOL    HW2 7744   2.665   2.452   4.322  2.1103  1.2864  2.4428
 2374SOL     OW 7745   3.559   1.136   1.786  0.1521 -0.3417 -0.0612
 2374SOL    HW1 7746   3.553   1.098   1.879 -1.3511 -1.6118 -0.6304
 2374SOL    HW2 7747   3.586   1.065   1.722  3.7277  1.0901 -0.3369
 2375SOL     OW 7748   3.026   1.607   1.773  0.1093 -0.2507  0.2013
 2375SOL    HW1 7749   3.087   1.684   1.755  0.2621 -0.2983  0.5003
 2375SOL    HW2 7750   2.936   1.641   1.799  0.7044 -0.0941  2.3122
 2376SOL     OW 7751   3.709   1.934   1.131 -0.4134 -0.7058 -0.3969
 2376SOL    HW1 7752   3.654   1.851   1.129 -1.7344  0.0287  1.5864
 2376SOL    HW2 7753   3.673   1.996   1.201  2.4406  0.1973  0.4253
 2377SOL     OW 7754   3.686   0.159   1.791  0.1419 -0.3979 -0.5443
 2377SOL    HW1 7755   3.647   0.196   1.875 -2.5552 -3.0208 -0.4589
 2377SOL    HW2 7756   3.683   0.228   1.719 -0.0956  1.0253  0.7857
 2378SOL     OW 7757   3.296   0.153   2.307 -0.0337  0.2001  0.1302
 2378SOL    HW1 7758   3.270   0.209   2.385 -0.2051 -0.5016  0.5793
 2378SOL    HW2 7759   3.318   0.213   2.229 -2.7150  0.8390 -0.2152
 2379SOL     OW 7760   1.554   1.219   2.179 -0.1295 -0.4497 -0.5109
 2379SOL    HW1 7761   1.486   1.179   2.240  0.1568 -1.1383 -0.6307
 2379SOL    HW2 7762   1.531   1.315   2.161  0.6437  0.2543  1.9456
 2380SOL     OW 7763   1.989   3.622   4.225 -0.5265  0.3182  0.2273
 2380SOL    HW1 7764   2.036   3.561   4.161 -1.9941 -0.8777  0.2358
 2380SOL    HW2 7765   2.034   3.712   4.224  0.5828 -0.2057 -1.1238
 2381SOL     OW 7766   4.340   0.198   2.996  0.2835 -0.5680  0.5551
 2381SOL    HW1 7767   4.323   0.169   2.902 -0.4403 -0.0938  0.5333
 2381SOL    HW2 7768   4.360   0.296   2.997  1.2579 -0.7566  0.7938
 2382SOL     OW 7769   1.145   1.153   1.554  0.4195  0.0237  0.4298
 2382SOL    HW1 7770   1.169   1.183   1.646 -0.8360  1.8599  0.2038
 2382SOL    HW2 7771   1.055   1.110   1.556 -0.5659  1.9536 -0.2168
 2383SOL     OW 7772   1.718   2.651   3.821 -0.5736 -0.4671 -0.1625
 2383SOL    HW1 7773   1.645   2.716   3.841 -0.3915 -0.6659  1.2080
 2383SOL    HW2 7774   1.696   2.562   3.861  0.3017 -0.5886  0.0661
 2384SOL     OW 7775   3.655   1.874   1.495 -0.3898 -0.3967 -0.3403
 2384SOL    HW1 7776   3.663   1.970   1.521  0.8557 -0.3595 -0.7509
 2384SOL    HW2 7777   3.598   1.825   1.561  0.8653  0.1390  1.2109
 2385SOL     OW 7778   1.952   1.751   4.820  0.4946 -0.2014 -0.1335
 2385SOL    HW1 7779   1.952   1.838   4.868 -1.6024 -0.2037 -0.0210
 2385SOL    HW2 7780   1.987   1.764   4.727  0.2733  0.7471 -0.0904
 2386SOL     OW 7781   0.057   4.600   3.175 -0.3864 -0.2718 -0.4401
 2386SOL    HW1 7782  -0.017   4.647   3.127 -0.0448  1.0374  0.2792
 2386SOL    HW2 7783   0.121   4.562   3.109 -0.5221  0.5315 -1.0463
 2387SOL     OW 7784   3.617   2.591   0.127  0.3084  0.4900 -0.4671
 2387SOL    HW1 7785   3.623   2.684   0.162  1.3678  0.0503  0.5492
 2387SOL    HW2 7786   3.645   2.590   0.031  0.6224  1.1633 -0.3878
 2388SOL     OW 7787   2.541   1.973   3.958  0.4441  0.5698  0.1077
 2388SOL    HW1 7788   2.540   1.998   3.861  3.2583  1.8923  0.2986
 2388SOL    HW2 7789   2.593   1.889   3.970  2.6013  1.8932  0.6279
 2389SOL     OW 7790   0.891   2.630   4.635  0.5694  0.5852 -0.6144
 2389SOL    HW1 7791   0.896   2.530   4.645  0.1640  0.6470  0.3172
 2389SOL    HW2 7792   0.911   2.655   4.540 -0.5110 -0.4610 -1.1415
 2390SOL     OW 7793   1.010   4.799   1.125  0.2523 -0.6014  0.0794
 2390SOL    HW1 7794   1.026   4.863   1.050 -2.4838 -1.7821 -1.6765
 2390SOL    HW2 7795   1.049   4.710   1.102  4.1580  0.2306  2.5649
 2391SOL     OW 7796   1.254   3.115   1.877  0.6188 -0.1406  0.3938
 2391SOL    HW1 7797   1.240   3.019   1.898 -2.8100  0.2141  0.2464
 2391SOL    HW2 7798   1.313   3.123   1.796  0.1376 -2.1679 -0.2178
 2392SOL     OW 7799   3.442   0.115   3.040  0.5696 -0.3959 -0.7508
 2392SOL    HW1 7800   3.441   0.054   2.961  1.1954  0.3892 -1.3879
 2392SOL    HW2 7801   3.421   0.208   3.010 -1.8092 -0.4878  0.4121
 2393SOL     OW 7802   4.557   2.831   3.437 -0.4901  0.1161  0.2153
 2393SOL    HW1 7803   4.475   2.838   3.495 -1.8926 -0.2465 -1.6298
 2393SOL    HW2 7804   4.562   2.910   3.376  1.3975  0.8923  1.2813
 2394SOL     OW 7805   3.175   3.794   2.952 -0.3827  0.2679  0.2057
 2394SOL    HW1 7806   3.153   3.891   2.938 -0.3423  0.2596  0.0809
 2394SOL    HW2 7807   3.112   3.755   3.019 -1.5490 -0.0559 -1.0049
 2395SOL     OW 7808   3.087   0.954   4.705  0.5540 -0.7542  0.5818
 2395SOL    HW1 7809   3.111   0.931   4.800  0.6600 -1.4170  0.3981
 2395SOL    HW2 7810   3.016   0.892   4.673  1.3287 -1.2787 -0.1567
 2396SOL     OW 7811   0.954   2.155   1.627 -0.0792 -0.5725  0.9970
 2396SOL    HW1 7812   0.871   2.121   1.671 -0.4425 -0.2226  0.5874
 2396SOL    HW2 7813   0.938   2.246   1.590  0.2548 -0.8125  0.2412
 2397SOL     OW 7814   1.269   0.230   3.670 -0.4335 -0.0140 -0.3762
 2397SOL    HW1 7815   1.284   0.207   3.767 -0.6441  1.4068  0.0149
 2397SOL    HW2 7816   1.356   0.254   3.628 -0.5738  1.1275 -0.0439
 2398SOL     OW 7817   2.530   3.401   4.891 -0.3393 -0.1605  0.6413
 2398SOL    HW1 7818   2.604   3.426   4.953 -0.6425 -1.0980  1.4167
 2398SOL    HW2 7819   2.549   3.311   4.850 -0.3721  0.2320 -0.2599
 2399SOL     OW 7820   4.612   0.623   0.391  0.2566 -0.9897 -0.4605
 2399SOL    HW1 7821   4.705   0.609   0.426 -0.5437 -0.4526  2.0964
 2399SOL    HW2 7822   4.553   0.655   0.465 -1.5081  0.8458 -2.5161
 2400SOL     OW 7823   0.895   4.647   1.578 -0.4407  0.4724 -0.2692
 2400SOL    HW1 7824   0.881   4.745   1.592 -0.8137  0.4042 -0.1743
 2400SOL    HW2 7825   0.883   4.598   1.664  0.9517  0.4725 -0.0501
 2401SOL     OW 7826   0.837   4.210   4.696  0.5550  0.1858  0.3310
 2401SOL    HW1 7827   0.760   4.210   4.631  0.9697 -1.6658 -0.2319
 2401SOL    HW2 7828   0.810   4.164   4.780  1.3619 -1.5915 -0.3384
 2402SOL     OW 7829   2.117   3.106   2.637 -0.2424 -0.1778  0.2317
 2402SOL    HW1 7830   2.198   3.137   2.688  0.3173 -2.8139  1.0901
 2402SOL    HW2 7831   2.037   3.112   2.697 -0.8608  2.6899 -0.7015
 2403SOL     OW 7832   3.573   0.364   4.183  0.2516 -0.0007 -0.4948
 2403SOL    HW1 7833   3.612   0.428   4.249  0.3363 -0.3166 -0.2382
 2403SOL    HW2 7834   3.533   0.415   4.107  0.5349  0.3469 -0.4107
 2404SOL     OW 7835   4.540   4.695   3.373  0.3914 -0.3680  0.2638
 2404SOL    HW1 7836   4.478   4.712   3.296  0.1774 -2.4923 -0.0746
 2404SOL    HW2 7837   4.623   4.749   3.360 -0.8232  1.5580  0.0767
 2405SOL     OW 7838   2.942   0.891   4.295  0.0560  0.1111 -0.4380
 2405SOL    HW1 7839   2.933   0.807   4.241 -0.3577  1.0003 -1.8134
 2405SOL    HW2 7840   2.990   0.960   4.241 -0.8599  1.2129  0.1116
 2406SOL     OW 7841   0.533   0.907   1.002 -0.5473 -0.1408 -0.1183
 2406SOL    HW1 7842   0.462   0.976   1.017  0.2635  1.3533 -2.5298
 2406SOL    HW2 7843   0.500   0.818   1.034 -2.0678  1.1196  2.0660
 2407SOL     OW 7844   3.588   1.610   1.432 -0.1873  0.0974 -0.5283
 2407SOL    HW1 7845   3.617   1.516   1.416 -1.3809 -0.9020  2.4390
 2407SOL    HW2 7846   3.662   1.673   1.409  1.9635 -1.8419  0.6927
 2408SOL     OW 7847   3.072   0.496   0.453  0.0189 -0.3553  0.2187
 2408SOL    HW1 7848   3.109   0.440   0.527 -0.3524 -1.2417 -0.2535
 2408SOL    HW2 7849   3.124   0.481   0.369  0.2321  0.3976  0.2033
 2409SOL     OW 7850   0.346   1.831   3.118  0.2037  0.4340 -0.5764
 2409SOL    HW1 7851   0.419   1.837   3.050 -0.6533 -3.4959 -2.1468
 2409SOL    HW2 7852   0.382   1.789   3.202 -0.0771 -1.0602 -1.1767
 2410SOL     OW 7853   1.091   4.434   3.878 -0.5483  0.1847 -0.2000
 2410SOL    HW1 7854   1.178   4.405   3.917  0.2335  0.6816 -1.5156
 2410SOL    HW2 7855   1.016   4.408   3.940  0.4770 -0.6970  0.7073
 2411SOL     OW 7856   4.134   2.878   0.633 -0.0833 -1.1747 -0.1262
 2411SOL    HW1 7857   4.042   2.847   0.606 -0.4512 -1.1777  1.0686
 2411SOL    HW2 7858   4.128   2.971   0.669  0.8414 -0.0687 -2.6232
 2412SOL     OW 7859   0.776   0.081   2.066 -0.2471  0.2551  0.0708
 2412SOL    HW1 7860   0.855   0.110   2.012  0.0222 -1.2715 -0.4186
 2412SOL    HW2 7861   0.693   0.121   2.028  0.2159  1.3642  0.1987
 2413SOL     OW 7862   1.331   4.163   2.539 -0.4644 -0.2886  0.1227
 2413SOL    HW1 7863   1.363   4.071   2.560  0.3899  0.2324  1.2239
 2413SOL    HW2 7864   1.238   4.175   2.573 -1.4140 -1.3949 -1.9213
 2414SOL     OW 7865   0.084   1.999   3.918  0.3421  0.4961 -0.1761
 2414SOL    HW1 7866   0.179   1.966   3.916  0.4192  0.7328 -1.0813
 2414SOL    HW2 7867   0.068   2.058   3.839 -0.6807  0.1361 -0.2505
 2415SOL     OW 7868   4.227   0.724   1.310 -0.1446 -0.2421  0.1684
 2415SOL    HW1 7869   4.213   0.741   1.407  1.2259 -0.4486  0.4167
 2415SOL    HW2 7870   4.249   0.810   1.264 -2.4227  0.1482 -0.2908
 2416SOL     OW 7871   0.875   3.195   0.139 -0.2078  0.3386 -0.1929
 2416SOL    HW1 7872   0.900   3.101   0.166  2.1307  0.9515  0.0319
 2416SOL    HW2 7873   0.843   3.195   0.045 -1.0242 -0.7869  0.0593
 2417SOL     OW 7874   0.050   0.704   2.013  0.0479  0.0946 -0.4822
 2417SOL    HW1 7875  -0.009   0.627   1.988 -0.5301  0.5977 -0.6962
 2417SOL    HW2 7876  -0.003   0.788   2.010  1.3636  0.9357 -3.1945
 2418SOL     OW 7877   4.449   1.428   2.998 -0.2883  0.0798 -0.2983
 2418SOL    HW1 7878   4.527   1.424   2.935 -0.0128  0.7019 -0.0110
 2418SOL    HW2 7879   4.364   1.429   2.946 -0.1224 -0.9640 -0.6048
 2419SOL     OW 7880   4.447   4.190   3.162 -0.0460  0.1972 -0.1702
 2419SOL    HW1 7881   4.370   4.146   3.209 -1.2842  1.0608 -1.3219
 2419SOL    HW2 7882   4.418   4.278   3.124  1.5292  0.5678 -0.5995
 2420SOL     OW 7883   2.787   2.444   2.572 -0.1736 -0.4356 -0.1678
 2420SOL    HW1 7884   2.837   2.526   2.547  2.7180 -2.5911 -2.0964
 2420SOL    HW2 7885   2.840   2.391   2.638 -1.6515 -1.1109  0.5237
 2421SOL     OW 7886   1.518   2.661   4.441  0.6252 -0.4254  0.0216
 2421SOL    HW1 7887   1.447   2.595   4.467  0.1335 -0.0962 -0.4432
 2421SOL    HW2 7888   1.480   2.726   4.375  1.1601  0.1961  0.3106
 2422SOL     OW 7889   0.889   3.177   1.474 -0.1978  0.8037  0.1037
 2422SOL    HW1 7890   0.957   3.229   1.422  0.2811  0.0435 -0.0328
 2422SOL    HW2 7891   0.807   3.164   1.419 -0.4117  1.5986  0.2172
 2423SOL     OW 7892   1.723   4.758   2.326 -0.6811 -0.6846 -0.4152
 2423SOL    HW1 7893   1.663   4.705   2.386 -1.4380  0.1805 -0.3829
 2423SOL    HW2 7894   1.688   4.852   2.318  0.9176 -0.0133 -0.0256
 2424SOL     OW 7895   3.858   2.261   1.046  0.6601  0.1625 -0.0164
 2424SOL    HW1 7896   3.920   2.186   1.026  1.6621  0.5221  1.5860
 2424SOL    HW2 7897   3.791   2.233   1.114 -0.2820  0.1133 -0.9361
 2425SOL     OW 7898   2.245   0.973   0.746  0.4954  0.1636  0.4765
 2425SOL    HW1 7899   2.217   0.889   0.699  0.5248 -0.1484  1.0130
 2425SOL    HW2 7900   2.334   0.958   0.790  0.9635  0.7796 -0.2327
 2426SOL     OW 7901   2.955   3.366   3.978 -0.1854  0.2338 -0.0828
 2426SOL    HW1 7902   2.882   3.298   3.983 -0.5148  0.6707  1.2851
 2426SOL    HW2 7903   2.943   3.421   3.895 -0.8941 -0.2629 -0.3203
 2427SOL     OW 7904   2.258   2.991   1.588  0.2847  0.3831  0.0815
 2427SOL    HW1 7905   2.266   2.958   1.494  2.2553  0.4185  0.1909
 2427SOL    HW2 7906   2.338   3.046   1.611  0.3148 -0.3923  2.0652
 2428SOL     OW 7907   2.115   4.071   0.806 -0.3023 -0.5132 -0.0551
 2428SOL    HW1 7908   2.131   4.161   0.846 -1.0978  0.3023 -1.4811
 2428SOL    HW2 7909   2.017   4.051   0.805 -0.3524 -0.3407 -1.8409
 2429SOL     OW 7910   2.350   4.572   3.043 -0.0549 -0.2269 -0.2907
 2429SOL    HW1 7911   2.361   4.661   2.999  1.9057 -0.6873 -0.7964
 2429SOL    HW2 7912   2.258   4.566   3.084 -0.0071  2.2296  0.2870
 2430SOL     OW 7913   2.205   2.286   0.996 -0.2468  0.4891  0.1963
 2430SOL    HW1 7914   2.240   2.222   1.064  0.4292 -0.5501 -1.0706
 2430SOL    HW2 7915   2.112   2.259   0.970  0.7068 -1.2842 -1.7508
 2431SOL     OW 7916   3.054   3.838   2.665  0.2419  0.3385 -0.0930
 2431SOL    HW1 7917   2.973   3.784   2.689  1.6572 -2.9258 -1.9685
 2431SOL    HW2 7918   3.095   3.875   2.748 -1.5059 -0.5003  1.2082
 2432SOL     OW 7919   3.620   2.054   3.369 -0.5191 -0.0212 -0.2174
 2432SOL    HW1 7920   3.601   2.134   3.425  1.5441  0.3063  0.1145
 2432SOL    HW2 7921   3.672   1.987   3.423 -2.6535 -1.8852 -0.3103
 2433SOL     OW 7922   2.988   2.438   4.827 -0.1778  0.0486  0.2863
 2433SOL    HW1 7923   2.978   2.422   4.729 -0.8542  0.3075  0.3079
 2433SOL    HW2 7924   2.989   2.350   4.875  0.0401 -0.0753  0.0595
 2434SOL     OW 7925   4.252   0.815   2.800 -0.3745  0.2436  0.2866
 2434SOL    HW1 7926   4.343   0.851   2.816 -0.3029  0.0551  0.3070
 2434SOL    HW2 7927   4.197   0.821   2.883 -1.3204  2.9921 -0.4089
 2435SOL     OW 7928   3.782   1.543   0.434  0.2954 -0.4886  0.3547
 2435SOL    HW1 7929   3.785   1.639   0.406  0.8770 -0.7388 -0.4599
 2435SOL    HW2 7930   3.713   1.494   0.381 -1.8120 -0.0074  2.4894
 2436SOL     OW 7931   2.577   2.197   4.633  0.1579 -0.1024 -0.1406
 2436SOL    HW1 7932   2.498   2.191   4.572  0.4081  0.0998 -0.4927
 2436SOL    HW2 7933   2.573   2.123   4.700 -0.6306  0.2500  0.2080
 2437SOL     OW 7934   3.556   3.518   2.038  0.1142  0.7659  0.7612
 2437SOL    HW1 7935   3.526   3.548   2.129  0.9358  2.5853  0.4619
 2437SOL    HW2 7936   3.613   3.589   1.996  0.2341 -0.2911 -0.9503
 2438SOL     OW 7937   0.960   2.752   3.679  0.1371  0.3472 -0.8942
 2438SOL    HW1 7938   1.023   2.719   3.749  0.5854 -1.5346 -2.0800
 2438SOL    HW2 7939   0.943   2.850   3.692 -0.0688  0.0124  1.9698
 2439SOL     OW 7940   1.440   0.801   3.661  0.3797 -0.6285  0.1661
 2439SOL    HW1 7941   1.501   0.880   3.673 -1.1955  0.3908  1.9799
 2439SOL    HW2 7942   1.375   0.797   3.737 -3.2951 -0.3691 -2.7118
 2440SOL     OW 7943   0.567   2.505   1.431  0.1588 -0.2616  0.1097
 2440SOL    HW1 7944   0.513   2.481   1.350 -0.9903  0.8303  0.5124
 2440SOL    HW2 7945   0.511   2.494   1.513  1.2921 -1.2917  0.7635
 2441SOL     OW 7946   3.334   1.082   4.606  0.3656 -0.1504  0.1056
 2441SOL    HW1 7947   3.416   1.044   4.648  1.2054  0.3394 -1.0097
 2441SOL    HW2 7948   3.292   1.149   4.667  0.9866 -0.1686  0.5573
 2442SOL     OW 7949   4.149   1.755   0.923 -0.2563  1.1565  0.1298
 2442SOL    HW1 7950   4.155   1.755   1.023 -1.9207  2.2851  0.2759
 2442SOL    HW2 7951   4.198   1.834   0.886  0.5015  0.6458  0.0353
 2443SOL     OW 7952   4.543   3.906   1.566 -1.0279  0.1124 -0.8534
 2443SOL    HW1 7953   4.557   3.960   1.483 -0.4067 -0.5183 -1.1720
 2443SOL    HW2 7954   4.571   3.811   1.549  1.6395  0.4954  0.8503
 2444SOL     OW 7955   3.458   2.015   0.931 -0.3017 -0.1723 -0.1024
 2444SOL    HW1 7956   3.458   2.089   0.998  0.5837 -0.3137  0.0728
 2444SOL    HW2 7957   3.497   1.933   0.973  0.7027 -0.1338 -0.9270
 2445SOL     OW 7958   4.575   2.629   3.817  0.1805  0.2117 -0.6940
 2445SOL    HW1 7959   4.534   2.541   3.840 -0.4578  0.7029  0.0689
 2445SOL    HW2 7960   4.670   2.614   3.787  0.4039 -0.6447  0.3575
 2446SOL     OW 7961   0.068   0.955   3.884  0.2316  0.9302  0.7846
 2446SOL    HW1 7962   0.075   0.965   3.785  1.3803 -0.0470  0.7353
 2446SOL    HW2 7963   0.092   1.042   3.928  0.1215  1.2528  0.2181
 2447SOL     OW 7964   1.664   1.711   4.729  0.2356  0.6783  0.6734
 2447SOL    HW1 7965   1.659   1.716   4.629 -2.3755  0.6259  0.7534
 2447SOL    HW2 7966   1.757   1.734   4.758  0.9421  1.1496 -1.7237
 2448SOL     OW 7967   4.735   3.592   4.396  0.0686 -0.0801  0.9041
 2448SOL    HW1 7968   4.679   3.526   4.446  1.6666 -1.0754  1.4657
 2448SOL    HW2 7969   4.754   3.671   4.454  1.9409 -1.2453  1.9881
 2449SOL     OW 7970   0.883   1.779   4.121  0.4205  0.1154  0.2643
 2449SOL    HW1 7971   0.933   1.864   4.104 -0.6921  0.4039 -1.9967
 2449SOL    HW2 7972   0.799   1.779   4.066 -0.1918 -1.9492  1.1214
 2450SOL     OW 7973   2.787   0.952   3.586 -0.2163 -0.5524 -0.0940
 2450SOL    HW1 7974   2.729   1.022   3.545  0.1063  0.6949  1.4750
 2450SOL    HW2 7975   2.790   0.871   3.526  0.6778  1.3118 -2.7563
 2451SOL     OW 7976   0.045   1.527   3.405 -0.1030 -0.0498  0.4151
 2451SOL    HW1 7977  -0.041   1.575   3.390  0.0275 -0.3159 -1.3629
 2451SOL    HW2 7978   0.052   1.502   3.502 -2.0995 -0.1792  0.5716
 2452SOL     OW 7979   0.299   3.132   1.083  0.9885 -0.6060  0.4944
 2452SOL    HW1 7980   0.362   3.081   1.141 -0.5350 -3.4156 -0.1582
 2452SOL    HW2 7981   0.318   3.110   0.987  0.6928  0.6059  0.1451
 2453SOL     OW 7982   1.782   4.332   0.472  0.0753 -0.2266 -0.4835
 2453SOL    HW1 7983   1.733   4.246   0.488  1.9409 -1.0449  1.2418
 2453SOL    HW2 7984   1.848   4.347   0.545  1.8544  1.2307 -2.2834
 2454SOL     OW 7985   3.259   2.111   0.759 -0.2046 -0.7035 -0.1062
 2454SOL    HW1 7986   3.298   2.093   0.850 -1.7037  1.0702  0.9603
 2454SOL    HW2 7987   3.168   2.070   0.753 -0.1756 -0.6854 -0.7767
 2455SOL     OW 7988   0.499   3.064   4.659  0.1326  0.0700 -0.4764
 2455SOL    HW1 7989   0.490   3.157   4.695 -1.5786 -0.4362  0.5393
 2455SOL    HW2 7990   0.429   3.006   4.700  0.3179 -1.3759 -2.1028
 2456SOL     OW 7991   4.622   0.165   0.390  0.0002 -0.7065  0.4369
 2456SOL    HW1 7992   4.635   0.075   0.348 -1.4995 -1.2553  1.0644
 2456SOL    HW2 7993   4.525   0.177   0.413  0.0937  1.2633 -0.0344
 2457SOL     OW 7994   0.093   1.549   3.681  0.3637  0.4179  0.4926
 2457SOL    HW1 7995   0.102   1.642   3.646  1.3890 -0.1437 -0.8610
 2457SOL    HW2 7996   0.025   1.546   3.754 -2.0517  1.6630 -1.5675
 2458SOL     OW 7997   1.649   3.173   0.111 -0.3756  0.7166 -0.2436
 2458SOL    HW1 7998   1.670   3.255   0.058  0.6011  0.0562 -0.9152
 2458SOL    HW2 7999   1.553   3.151   0.102 -0.3376  0.9497 -1.2627
 2459SOL     OW 8000   0.861   2.868   4.233  0.5130 -0.5933  0.1469
 2459SOL    HW1 8001   0.763   2.852   4.231  0.2316  0.9678 -1.0632
 2459SOL    HW2 8002   0.886   2.913   4.319  0.5013 -2.6192  1.2593
 2460SOL     OW 8003   3.059   0.694   0.949 -0.1122  0.7123 -0.1398
 2460SOL    HW1 8004   3.076   0.758   0.875 -0.6635  1.2023  0.1534
 2460SOL    HW2 8005   2.977   0.641   0.929 -0.3489  0.9517  0.1897
 2461SOL     OW 8006   2.229   0.598   3.778 -0.2646 -0.8741  0.3109
 2461SOL    HW1 8007   2.315   0.564   3.816 -0.1001 -1.5982 -0.6469
 2461SOL    HW2 8008   2.200   0.679   3.828  1.3233 -0.2218  0.2458
 2462SOL     OW 8009   4.021   3.540   3.804 -0.0127 -0.4099  0.1973
 2462SOL    HW1 8010   4.094   3.477   3.829 -0.2303  0.0393  2.0709
 2462SOL    HW2 8011   4.052   3.634   3.815 -0.9452 -0.2162  1.2977
 2463SOL     OW 8012   0.315   0.011   1.184  0.2508 -0.3278  0.1002
 2463SOL    HW1 8013   0.385   0.076   1.216  0.8262 -0.6235 -0.5340
 2463SOL    HW2 8014   0.232   0.061   1.160  0.7944  0.2279 -0.6780
 2464SOL     OW 8015   3.912   0.940   4.008  0.1201 -0.5715  0.6506
 2464SOL    HW1 8016   3.843   1.004   4.042  1.0147  0.6793  0.1834
 2464SOL    HW2 8017   3.940   0.879   4.083 -2.3448 -1.9673  0.5513
 2465SOL     OW 8018   4.859   3.814   4.515 -0.2534 -0.2041 -0.7344
 2465SOL    HW1 8019   4.821   3.905   4.535 -1.4521 -0.4482 -1.7789
 2465SOL    HW2 8020   4.959   3.821   4.510 -0.2883  0.9430 -0.2451
 2466SOL     OW 8021   0.055   3.287   0.456 -0.0694 -0.2042  0.2676
 2466SOL    HW1 8022  -0.015   3.280   0.385 -0.1542 -0.2772  0.3578
 2466SOL    HW2 8023   0.106   3.372   0.444  1.8923 -1.5531 -1.6842
 2467SOL     OW 8024   4.318   3.642   4.320  0.1602 -0.1263  0.1486
 2467SOL    HW1 8025   4.293   3.616   4.226 -0.2093  1.5656 -0.2588
 2467SOL    HW2 8026   4.243   3.618   4.382 -0.5566  0.7585 -0.3523
 2468SOL     OW 8027   3.861   1.231   3.417 -0.2352 -0.4663 -0.7020
 2468SOL    HW1 8028   3.941   1.291   3.416 -0.2903 -0.3853 -0.4520
 2468SOL    HW2 8029   3.850   1.188   3.328 -0.2021 -0.0913 -0.8892
 2469SOL     OW 8030   1.714   4.540   0.774 -0.7104  0.2938 -0.3919
 2469SOL    HW1 8031   1.802   4.495   0.755 -1.2478 -0.9199 -0.0682
 2469SOL    HW2 8032   1.644   4.471   0.789 -1.5613  1.2571  0.1538
 2470SOL     OW 8033   1.045   0.972   4.597 -0.0896  0.1067 -0.1106
 2470SOL    HW1 8034   1.016   1.066   4.616 -2.4080 -0.7630  0.9589
 2470SOL    HW2 8035   0.992   0.936   4.520  2.3962  0.3325 -2.0987
 2471SOL     OW 8036   0.536   4.706   3.540 -0.2883  1.1355 -0.1177
 2471SOL    HW1 8037   0.562   4.695   3.636 -0.3844  2.7411  0.1225
 2471SOL    HW2 8038   0.619   4.719   3.484 -0.2830  1.1383 -0.1093
 2472SOL     OW 8039   3.382   2.459   0.154  0.2291 -0.0064  0.0999
 2472SOL    HW1 8040   3.470   2.504   0.137 -0.2560  0.9494  0.0670
 2472SOL    HW2 8041   3.308   2.511   0.112 -0.5409  0.1161  1.5252
 2473SOL     OW 8042   1.853   0.058   0.221  0.4411  0.3463  0.0675
 2473SOL    HW1 8043   1.936   0.063   0.277  0.4497 -1.0379  0.2294
 2473SOL    HW2 8044   1.874   0.086   0.127  1.5930 -1.7165 -0.3651
 2474SOL     OW 8045   1.319   3.171   0.837  0.2403 -0.0033  0.1609
 2474SOL    HW1 8046   1.394   3.182   0.772 -0.1106  0.1805 -0.2153
 2474SOL    HW2 8047   1.237   3.213   0.800  0.0091  0.0027  0.6759
 2475SOL     OW 8048   1.994   3.345   3.337  0.2024  0.6961 -0.1897
 2475SOL    HW1 8049   1.980   3.274   3.405  1.8708 -1.9662 -2.4213
 2475SOL    HW2 8050   1.906   3.383   3.310 -0.9818 -1.8946 -0.2646
 2476SOL     OW 8051   2.142   3.166   4.118  0.9798 -0.5497  0.9341
 2476SOL    HW1 8052   2.177   3.108   4.044 -1.1957  0.7677 -1.2702
 2476SOL    HW2 8053   2.079   3.114   4.175  1.2932 -1.1074  0.7775
 2477SOL     OW 8054   3.516   3.562   3.105 -0.7306  0.2244 -0.4539
 2477SOL    HW1 8055   3.527   3.586   3.201 -1.1016  1.5264 -0.7158
 2477SOL    HW2 8056   3.522   3.462   3.095  1.0585  0.1671  0.6626
 2478SOL     OW 8057   2.234   2.386   3.528 -0.3487  0.1620  0.2570
 2478SOL    HW1 8058   2.165   2.314   3.524 -0.1999  0.0829 -1.0864
 2478SOL    HW2 8059   2.235   2.437   3.442  1.0380  0.3784  0.3737
 2479SOL     OW 8060   2.558   0.043   0.022 -0.7125  0.1458  0.6774
 2479SOL    HW1 8061   2.609  -0.018  -0.039 -2.7796  0.1503 -1.1828
 2479SOL    HW2 8062   2.619   0.115   0.055  0.9288 -0.9246  0.1082
 2480SOL     OW 8063   2.069   0.991   2.309  0.2739  0.5204 -0.2687
 2480SOL    HW1 8064   2.160   0.951   2.314  0.3097  0.6172 -0.1584
 2480SOL    HW2 8065   2.043   1.028   2.398 -0.2175 -0.2650 -0.0719
 2481SOL     OW 8066   0.449   3.720   3.884 -0.7622 -0.1256 -0.5516
 2481SOL    HW1 8067   0.403   3.758   3.804 -0.6087  1.1942 -0.0478
 2481SOL    HW2 8068   0.381   3.687   3.950 -0.9159 -0.3012 -0.7980
 2482SOL     OW 8069   1.475   1.672   0.796 -0.3083 -0.3733  0.5102
 2482SOL    HW1 8070   1.421   1.717   0.867  0.5648  1.7311 -0.0578
 2482SOL    HW2 8071   1.563   1.643   0.834  0.0981  0.6170  0.3526
 2483SOL     OW 8072   4.270   1.472   1.621 -0.5410  0.2326 -0.2477
 2483SOL    HW1 8073   4.237   1.564   1.644 -0.5020  0.0518  0.5786
 2483SOL    HW2 8074   4.333   1.441   1.691 -1.1951 -0.7517 -0.0696
 2484SOL     OW 8075   4.634   0.964   0.678  0.3958 -0.5447  0.0292
 2484SOL    HW1 8076   4.626   0.952   0.777 -1.7908  1.3787  0.1922
 2484SOL    HW2 8077   4.603   1.056   0.654  2.2596 -0.4656 -2.3268
 2485SOL     OW 8078   1.417   2.227   1.331  0.3866 -0.0114 -0.2745
 2485SOL    HW1 8079   1.455   2.288   1.262 -0.4197  1.3759  0.4503
 2485SOL    HW2 8080   1.442   2.261   1.422 -0.5690 -0.4102  0.1525
 2486SOL     OW 8081   3.669   0.452   4.899 -0.0573 -0.0613 -0.5294
 2486SOL    HW1 8082   3.665   0.364   4.946  0.4621  0.0031 -0.3569
 2486SOL    HW2 8083   3.577   0.486   4.883 -0.2502 -0.4272 -0.1988
 2487SOL     OW 8084   3.167   3.020   3.750  0.2868 -0.0249  0.0381
 2487SOL    HW1 8085   3.221   3.072   3.684  1.1859 -1.1795 -0.1820
 2487SOL    HW2 8086   3.190   3.050   3.842 -0.1718  0.8509 -0.1235
 2488SOL     OW 8087   0.867   0.766   3.054  0.5017 -0.8417  0.0000
 2488SOL    HW1 8088   0.791   0.823   3.085 -0.7569 -1.7352 -1.3117
 2488SOL    HW2 8089   0.939   0.765   3.124 -0.1649  0.9583  0.7664
 2489SOL     OW 8090   4.422   4.045   4.403 -0.1994 -0.2400 -0.0481
 2489SOL    HW1 8091   4.460   4.132   4.369  0.2012 -0.7264 -0.8950
 2489SOL    HW2 8092   4.322   4.052   4.407 -0.3710 -0.5242 -2.4894
 2490SOL     OW 8093   1.575   3.409   1.008  0.1663 -0.1142  0.4537
 2490SOL    HW1 8094   1.570   3.391   1.107  1.5354  0.4854  0.6566
 2490SOL    HW2 8095   1.577   3.322   0.959 -0.1987 -0.4243  0.9810
 2491SOL     OW 8096   0.193   1.409   2.641  0.3748 -0.5885  0.5986
 2491SOL    HW1 8097   0.213   1.504   2.615 -0.8446 -0.8888 -1.6739
 2491SOL    HW2 8098   0.272   1.370   2.687  2.4963  0.2912 -2.0732
 2492SOL     OW 8099   2.685   1.493   0.831 -0.3645  0.0932  0.0865
 2492SOL    HW1 8100   2.704   1.402   0.869 -2.8971 -0.4529  0.1896
 2492SOL    HW2 8101   2.669   1.486   0.733  0.8765  0.6972 -0.1845
 2493SOL     OW 8102   2.080   0.422   2.617  0.2922 -0.8086  0.0494
 2493SOL    HW1 8103   2.042   0.486   2.684  0.6526 -0.1444 -0.3777
 2493SOL    HW2 8104   2.012   0.402   2.547  0.6038  0.1519 -0.5517
 2494SOL     OW 8105   2.465   0.984   3.959 -0.4331  0.1679  0.3955
 2494SOL    HW1 8106   2.519   1.066   3.979 -0.9379  0.8501 -0.8867
 2494SOL    HW2 8107   2.525   0.912   3.926 -0.1520  0.5626  0.0216
 2495SOL     OW 8108   3.852   4.236   0.632 -0.8377 -0.3006 -0.4081
 2495SOL    HW1 8109   3.942   4.270   0.604  0.2132 -2.0013  0.7069
 2495SOL    HW2 8110   3.796   4.313   0.664  0.4111  0.7363 -0.6244
 2496SOL     OW 8111   3.079   0.475   1.773  0.3772 -0.1350  0.5676
 2496SOL    HW1 8112   3.059   0.530   1.692 -0.5917  0.1733  0.9871
 2496SOL    HW2 8113   2.993   0.444   1.813  0.8900 -1.3732  0.7481
 2497SOL     OW 8114   2.216   4.444   1.749 -0.2785 -0.2814 -0.3634
 2497SOL    HW1 8115   2.314   4.443   1.729  0.1123  1.0414  1.2525
 2497SOL    HW2 8116   2.202   4.458   1.847 -2.0991 -0.0602 -0.6151
 2498SOL     OW 8117   2.293   1.518   2.935  0.4385 -0.2830  0.0346
 2498SOL    HW1 8118   2.300   1.460   2.854  0.7713 -1.4238  0.8588
 2498SOL    HW2 8119   2.352   1.483   3.007 -0.7500 -0.0086  1.1951
 2499SOL     OW 8120   3.218   2.098   2.841  0.3492  0.7081 -0.5210
 2499SOL    HW1 8121   3.301   2.128   2.795  0.6615 -0.0476 -0.4566
 2499SOL    HW2 8122   3.160   2.178   2.860  0.5450  1.1160 -1.5555
 2500SOL     OW 8123   1.004   2.591   2.707  0.3928 -0.4481 -0.2705
 2500SOL    HW1 8124   1.004   2.574   2.805  1.1380  0.1500 -0.1542
 2500SOL    HW2 8125   0.929   2.654   2.684  0.7074  0.0545  0.0472
 2501SOL     OW 8126   3.422   3.092   1.167  0.3685 -0.0124 -0.0243
 2501SOL    HW1 8127   3.386   3.005   1.133  1.0121 -0.2458 -0.1309
 2501SOL    HW2 8128   3.499   3.120   1.110  1.1501 -0.1511  0.9420
 2502SOL     OW 8129   1.247   3.708   1.970  0.5684  0.2237 -0.8225
 2502SOL    HW1 8130   1.192   3.650   2.030 -1.1354  0.2148 -2.2988
 2502SOL    HW2 8131   1.245   3.802   2.002  4.1191 -0.4876  2.1394
 2503SOL     OW 8132   4.781   4.044   0.254  0.4054 -0.2749  0.7908
 2503SOL    HW1 8133   4.752   3.952   0.228  0.5661 -0.3065  0.7250
 2503SOL    HW2 8134   4.770   4.055   0.352  1.0786 -0.6127  0.9067
 2504SOL     OW 8135   1.485   4.713   1.184 -0.2336  0.4890 -0.3516
 2504SOL    HW1 8136   1.428   4.666   1.251 -2.0065  2.2353 -0.5518
 2504SOL    HW2 8137   1.436   4.720   1.097 -0.6553  3.7580  0.0141
 2505SOL     OW 8138   4.069   4.905   0.705 -0.4493  0.7370  0.3602
 2505SOL    HW1 8139   3.981   4.860   0.689  0.3331 -0.4657 -0.7262
 2505SOL    HW2 8140   4.115   4.921   0.618  0.5634  1.0785  0.9355
 2506SOL     OW 8141   0.747   0.155   1.111  0.0071  0.0032  0.0318
 2506SOL    HW1 8142   0.741   0.086   1.040 -0.6580 -0.5031  0.5691
 2506SOL    HW2 8143   0.749   0.111   1.201 -1.1733  0.6845  0.4206
 2507SOL     OW 8144   3.625   4.704   0.978  0.3251 -0.0140 -0.2236
 2507SOL    HW1 8145   3.668   4.794   0.989 -0.1737  0.2411 -0.3576
 2507SOL    HW2 8146   3.616   4.661   1.068 -1.4648  1.0121  0.1320
 2508SOL     OW 8147   3.079   4.662   3.483  0.0383 -0.0101 -0.9024
 2508SOL    HW1 8148   3.105   4.633   3.391  2.9519  1.8611 -0.8210
 2508SOL    HW2 8149   3.097   4.588   3.548  0.6618 -0.4135 -1.5223
 2509SOL     OW 8150   0.463   3.201   1.654  0.0742  0.2896 -0.0754
 2509SOL    HW1 8151   0.560   3.179   1.665  0.4174  0.4082 -2.4608
 2509SOL    HW2 8152   0.449   3.298   1.676  0.4158  0.2024  0.5733
 2510SOL     OW 8153   1.564   1.082   4.679  0.1595 -0.0984  0.3425
 2510SOL    HW1 8154   1.541   1.125   4.766  0.7846  1.4917 -0.2377
 2510SOL    HW2 8155   1.489   1.023   4.650 -1.5070  1.9071  0.3798
 2511SOL     OW 8156   3.081   3.975   0.174 -0.1837  0.1638 -0.1747
 2511SOL    HW1 8157   3.000   3.996   0.120  0.0236 -0.0487 -0.5706
 2511SOL    HW2 8158   3.054   3.954   0.268 -0.6145 -0.2404 -0.3877
 2512SOL     OW 8159   0.867   4.701   2.506  0.2571  0.5611  0.4093
 2512SOL    HW1 8160   0.809   4.743   2.436  0.8476  0.7982  0.0545
 2512SOL    HW2 8161   0.951   4.754   2.515  0.7449 -0.2063  0.3891
 2513SOL     OW 8162   0.928   0.004   0.337 -0.4590  0.2472  0.1768
 2513SOL    HW1 8163   0.973   0.001   0.248  0.7657 -0.7522  0.7934
 2513SOL    HW2 8164   0.923   0.098   0.370  0.2276  0.4810 -0.3804
 2514SOL     OW 8165   4.064   2.095   0.677 -0.2268  0.4292 -0.2873
 2514SOL    HW1 8166   3.979   2.050   0.651  0.1739 -0.5266  0.0041
 2514SOL    HW2 8167   4.045   2.190   0.703 -1.5950 -0.3858  1.9872
 2515SOL     OW 8168   1.537   2.514   0.880  0.7886  0.1525 -0.4790
 2515SOL    HW1 8169   1.604   2.474   0.817 -0.9153 -1.2427 -1.5130
 2515SOL    HW2 8170   1.485   2.585   0.832  1.9843  1.8016  0.5543
 2516SOL     OW 8171   4.584   2.880   0.329 -0.2440 -0.0250  0.1406
 2516SOL    HW1 8172   4.518   2.810   0.303 -1.3933  1.0645  0.0085
 2516SOL    HW2 8173   4.600   2.876   0.428  2.1528 -2.4885 -0.2352
 2517SOL     OW 8174   4.712   2.205   4.236  0.4879  0.3134 -0.1979
 2517SOL    HW1 8175   4.740   2.247   4.149  1.8623  0.6084  0.3618
 2517SOL    HW2 8176   4.790   2.202   4.298  0.0342 -1.7183  0.3289
 2518SOL     OW 8177   4.159   2.097   0.196 -0.5057 -0.2848 -0.4045
 2518SOL    HW1 8178   4.210   2.109   0.281  0.6301 -0.2170 -1.0760
 2518SOL    HW2 8179   4.112   2.182   0.173  0.1087  0.0602 -0.4212
 2519SOL     OW 8180   4.739   4.419   2.126  0.6620  0.0115 -0.5459
 2519SOL    HW1 8181   4.681   4.368   2.062  0.1132 -1.7362  1.2269
 2519SOL    HW2 8182   4.830   4.378   2.127  0.6742  0.0410 -0.2628
 2520SOL     OW 8183   3.118   0.100   4.718  0.3974  0.5120  0.0459
 2520SOL    HW1 8184   3.024   0.120   4.694  0.9672  0.1253 -2.8625
 2520SOL    HW2 8185   3.170   0.185   4.727  0.3599  0.6901 -1.2112
 2521SOL     OW 8186   1.745   2.839   2.358 -0.0818  0.3004  0.3800
 2521SOL    HW1 8187   1.697   2.889   2.286  1.2893  0.4416 -0.4586
 2521SOL    HW2 8188   1.808   2.773   2.318 -0.3528 -0.6603  1.4740
 2522SOL     OW 8189   0.456   2.843   3.987  0.0715 -0.2493  0.0731
 2522SOL    HW1 8190   0.524   2.782   4.026  0.2881  0.8247  1.4411
 2522SOL    HW2 8191   0.500   2.904   3.921  0.6402  1.0029  1.5654
 2523SOL     OW 8192   3.679   2.875   4.840  0.0608 -0.3910 -0.2638
 2523SOL    HW1 8193   3.605   2.943   4.840 -0.0334 -0.4931 -0.2757
 2523SOL    HW2 8194   3.707   2.856   4.934 -0.1295 -0.5692 -0.2413
 2524SOL     OW 8195   4.863   1.805   4.532 -0.3657 -0.5755  0.0855
 2524SOL    HW1 8196   4.880   1.755   4.448 -0.3974  1.2396 -1.0716
 2524SOL    HW2 8197   4.775   1.853   4.525  0.3493  0.8576  0.4627
 2525SOL     OW 8198   3.180   4.899   1.366  0.5658 -0.9933  0.5542
 2525SOL    HW1 8199   3.163   4.977   1.427 -0.3590 -0.3889 -0.4330
 2525SOL    HW2 8200   3.227   4.827   1.417  2.9261  0.8005  1.0978
 2526SOL     OW 8201   0.600   1.014   1.371  0.5289  0.0843 -0.3704
 2526SOL    HW1 8202   0.506   1.040   1.392 -0.0332  0.3598 -2.9618
 2526SOL    HW2 8203   0.604   0.915   1.355  1.0991 -0.2477  1.4916
 2527SOL     OW 8204   1.505   4.577   0.595  0.1691  0.0125  0.4477
 2527SOL    HW1 8205   1.560   4.581   0.678  2.3559  1.1338 -0.9616
 2527SOL    HW2 8206   1.561   4.543   0.519 -1.0268  1.2864 -1.0932
 2528SOL     OW 8207   1.715   4.173   0.956  0.2265  0.3561  0.3725
 2528SOL    HW1 8208   1.655   4.249   0.932  2.1625  1.7032 -0.4828
 2528SOL    HW2 8209   1.789   4.206   1.014  1.8770 -0.5368 -1.1313
 2529SOL     OW 8210   1.653   3.927   3.153  0.2089  0.2399  0.0479
 2529SOL    HW1 8211   1.709   3.938   3.235 -0.5115 -0.5167  0.6586
 2529SOL    HW2 8212   1.601   3.842   3.159 -1.1800  1.0183 -0.3866
 2530SOL     OW 8213   2.889   0.799   4.631  0.2723 -0.3667  0.2319
 2530SOL    HW1 8214   2.820   0.843   4.572  1.6096  1.5893  0.0427
 2530SOL    HW2 8215   2.901   0.704   4.602 -0.8391 -0.1493 -1.0707
 2531SOL     OW 8216   4.630   1.495   1.516  0.2337  0.2497  0.5305
 2531SOL    HW1 8217   4.558   1.540   1.464 -0.9483 -0.7232  1.2630
 2531SOL    HW2 8218   4.625   1.396   1.501 -0.8297 -0.1916  3.2195
 2532SOL     OW 8219   2.564   4.568   3.421  0.3675 -0.5717  0.4367
 2532SOL    HW1 8220   2.499   4.563   3.497 -1.1665 -0.9340 -0.8541
 2532SOL    HW2 8221   2.548   4.652   3.369  1.0933 -0.5576  0.2311
 2533SOL     OW 8222   1.148   3.436   3.059 -0.3552  0.1812  0.3227
 2533SOL    HW1 8223   1.062   3.391   3.085 -0.6791  1.1516  1.0375
 2533SOL    HW2 8224   1.225   3.386   3.098 -0.7371  0.5078  1.5658
 2534SOL     OW 8225   3.676   3.442   0.165 -0.0200 -0.6623  0.0527
 2534SOL    HW1 8226   3.623   3.375   0.217  0.6603 -1.7944 -0.6621
 2534SOL    HW2 8227   3.649   3.534   0.192 -0.0010 -1.2027  2.1006
 2535SOL     OW 8228   4.873   3.399   1.581  0.2218 -0.0398 -0.3815
 2535SOL    HW1 8229   4.960   3.357   1.610  0.1137  0.4358  0.6887
 2535SOL    HW2 8230   4.816   3.413   1.662 -1.2480 -1.2132 -1.1742
 2536SOL     OW 8231   2.724   0.501   4.840  0.1354 -0.0891 -0.2171
 2536SOL    HW1 8232   2.639   0.541   4.803  0.8479 -0.6197 -2.6184
 2536SOL    HW2 8233   2.701   0.439   4.915 -1.6717 -0.6027 -1.1264
 2537SOL     OW 8234   1.168   4.494   1.919 -0.0488 -0.3325 -0.1561
 2537SOL    HW1 8235   1.196   4.589   1.916 -0.1418 -0.0135  3.8019
 2537SOL    HW2 8236   1.068   4.488   1.926 -0.0027 -0.6922  0.2469
 2538SOL     OW 8237   4.449   1.136   4.276 -0.1071 -0.5947 -0.1642
 2538SOL    HW1 8238   4.523   1.187   4.320 -1.4777 -0.0653  1.6593
 2538SOL    HW2 8239   4.405   1.194   4.208 -0.3413 -0.0515  0.4389
 2539SOL     OW 8240   4.074   1.501   1.311  0.2356  0.2477  0.1061
 2539SOL    HW1 8241   4.045   1.500   1.407  4.3334 -0.4867  1.4965
 2539SOL    HW2 8242   4.046   1.415   1.267 -0.7438  0.1315  0.9047
 2540SOL     OW 8243   2.166   3.144   1.261 -0.5932  0.0406  0.5932
 2540SOL    HW1 8244   2.227   3.222   1.270  1.5760 -1.4778 -0.1625
 2540SOL    HW2 8245   2.086   3.157   1.320 -0.3016  2.7751  0.4884
 2541SOL     OW 8246   2.754   3.837   4.743 -0.2740 -0.9827 -0.1423
 2541SOL    HW1 8247   2.814   3.913   4.718  1.0338 -1.6448  0.8372
 2541SOL    HW2 8248   2.699   3.863   4.822 -1.4773 -0.3035 -1.1625
 2542SOL     OW 8249   4.402   1.570   1.016 -0.3347  0.6428 -0.0678
 2542SOL    HW1 8250   4.305   1.561   1.038 -0.7387  1.0181 -1.5560
 2542SOL    HW2 8251   4.415   1.646   0.952  0.8464  0.1797 -0.4084
 2543SOL     OW 8252   0.708   4.158   0.037  0.2524 -0.3258 -0.2873
 2543SOL    HW1 8253   0.649   4.238   0.031 -0.7520 -1.0605 -0.3870
 2543SOL    HW2 8254   0.706   4.122   0.131  0.9705 -0.0522 -0.1545
 2544SOL     OW 8255   0.653   4.080   3.851  0.7791 -0.1729 -0.1302
 2544SOL    HW1 8256   0.566   4.067   3.897  0.6718  0.5620 -0.1117
 2544SOL    HW2 8257   0.701   3.993   3.844  0.0802 -0.5673 -0.0685
 2545SOL     OW 8258   4.409   3.324   3.506 -0.1082 -0.1952  0.0910
 2545SOL    HW1 8259   4.488   3.269   3.534  1.9048  1.9067 -1.0916
 2545SOL    HW2 8260   4.356   3.274   3.437  0.5184 -1.4152  0.4688
 2546SOL     OW 8261   4.258   0.988   1.255  0.1786  0.1260 -0.5757
 2546SOL    HW1 8262   4.242   1.016   1.350  1.5936 -2.2441  0.4675
 2546SOL    HW2 8263   4.275   1.069   1.199 -2.5100  1.7471  0.7521
 2547SOL     OW 8264   2.474   3.248   2.187 -0.1092 -0.0357 -0.1782
 2547SOL    HW1 8265   2.400   3.277   2.247  0.3130  1.5592 -0.3683
 2547SOL    HW2 8266   2.477   3.149   2.182 -2.8748 -0.1628 -0.9513
 2548SOL     OW 8267   0.937   2.327   3.846  0.5973 -0.0659  0.3193
 2548SOL    HW1 8268   1.013   2.392   3.834 -0.1618  0.9909  1.0269
 2548SOL    HW2 8269   0.876   2.360   3.918  0.3703 -1.7767  0.9453
 2549SOL     OW 8270   0.946   4.253   1.248 -0.0714  0.2870  0.0550
 2549SOL    HW1 8271   1.036   4.215   1.227  0.1625  0.7082  0.2767
 2549SOL    HW2 8272   0.924   4.235   1.344 -0.0735  0.4725  0.0913
 2550SOL     OW 8273   2.823   0.203   1.103 -0.7428  0.3798  0.3206
 2550SOL    HW1 8274   2.741   0.238   1.148 -1.4878 -1.4612  0.4478
 2550SOL    HW2 8275   2.798   0.151   1.022  0.2295 -0.8010  0.7451
 2551SOL     OW 8276   0.556   2.971   3.776  0.2019 -0.3592  0.2579
 2551SOL    HW1 8277   0.503   2.913   3.715 -0.4111 -0.2146  0.6383
 2551SOL    HW2 8278   0.549   3.066   3.746  1.7723 -0.5437 -0.7699
 2552SOL     OW 8279   1.238   4.264   3.063 -0.1437 -0.2550 -0.0224
 2552SOL    HW1 8280   1.174   4.301   3.130 -1.0620  0.5678 -1.3006
 2552SOL    HW2 8281   1.279   4.180   3.099  0.0267  0.5915  1.8790
 2553SOL     OW 8282   4.568   3.947   0.092 -0.3116 -0.2745 -0.4563
 2553SOL    HW1 8283   4.543   3.991   0.178 -1.1794  1.4077 -1.5024
 2553SOL    HW2 8284   4.539   3.852   0.093  0.4301 -0.5212  1.3997
 2554SOL     OW 8285   3.786   0.140   4.156  0.3266  0.7644  0.2963
 2554SOL    HW1 8286   3.727   0.218   4.177 -3.1096 -0.7234 -2.7498
 2554SOL    HW2 8287   3.819   0.148   4.062  1.4908 -0.5766  0.5552
 2555SOL     OW 8288   4.234   3.627   0.178  0.1034  0.3359  0.3584
 2555SOL    HW1 8289   4.182   3.711   0.161  0.9004  0.4782 -1.6347
 2555SOL    HW2 8290   4.173   3.548   0.171 -0.0886  0.5730 -0.7538
 2556SOL     OW 8291   3.932   0.897   2.957  0.6046 -0.3297 -0.2817
 2556SOL    HW1 8292   3.844   0.900   3.005  0.3292 -1.3153 -0.6737
 2556SOL    HW2 8293   3.933   0.966   2.885  1.4634  1.9321  1.7921
 2557SOL     OW 8294   3.073   0.359   1.142 -0.7573  0.0633  0.5023
 2557SOL    HW1 8295   3.109   0.385   1.052 -0.5884  1.1628  0.8820
 2557SOL    HW2 8296   2.981   0.320   1.131 -0.3924 -0.6170 -0.2278
 2558SOL     OW 8297   3.136   0.857   3.214 -0.0046 -0.0528 -0.0594
 2558SOL    HW1 8298   3.106   0.847   3.120 -0.6772  2.0908 -0.1146
 2558SOL    HW2 8299   3.208   0.927   3.220 -1.9579  1.9602  1.3190
 2559SOL     OW 8300   3.443   4.062   0.898 -0.8837  0.7502 -0.0014
 2559SOL    HW1 8301   3.479   4.129   0.832  0.1740  0.6225  0.4333
 2559SOL    HW2 8302   3.344   4.073   0.905 -0.9739  0.9601 -1.3958
 2560SOL     OW 8303   2.754   4.018   1.326 -0.5342 -0.2255  0.0822
 2560SOL    HW1 8304   2.824   4.060   1.385  0.5758 -0.7173 -0.8565
 2560SOL    HW2 8305   2.677   4.082   1.316  0.4427  0.9719 -0.0905
 2561SOL     OW 8306   2.113   1.319   4.308 -0.5357  0.1089 -0.6163
 2561SOL    HW1 8307   2.197   1.305   4.361 -0.9650 -0.5991 -0.0988
 2561SOL    HW2 8308   2.123   1.275   4.219 -0.0876  0.6622 -0.8458
 2562SOL     OW 8309   1.705   0.420   0.200  0.5624  0.4241  0.0285
 2562SOL    HW1 8310   1.691   0.483   0.124 -1.8137  0.3197  0.2953
 2562SOL    HW2 8311   1.764   0.345   0.171 -0.1055  0.5030 -1.6605
 2563SOL     OW 8312   2.447   3.728   4.605  0.1705 -0.0010  0.0782
 2563SOL    HW1 8313   2.447   3.813   4.658  1.9433 -0.3613  0.7344
 2563SOL    HW2 8314   2.444   3.750   4.507  2.4716  0.9643  0.1547
 2564SOL     OW 8315   3.283   1.403   0.706  0.6967 -0.3065  0.3205
 2564SOL    HW1 8316   3.291   1.464   0.628 -1.3865 -0.6846 -0.2484
 2564SOL    HW2 8317   3.196   1.419   0.752  0.0869 -2.7845  0.1610
 2565SOL     OW 8318   0.842   1.678   4.367 -0.3983 -0.8595 -0.7342
 2565SOL    HW1 8319   0.919   1.671   4.431 -0.6010 -1.2162 -0.5280
 2565SOL    HW2 8320   0.875   1.713   4.280 -0.4679  1.7344  0.1987
 2566SOL     OW 8321   2.168   2.251   0.541  0.7214 -0.0509 -0.4069
 2566SOL    HW1 8322   2.225   2.317   0.492 -1.3300  1.1577 -1.3228
 2566SOL    HW2 8323   2.073   2.261   0.510  0.0500 -2.1918  0.8049
 2567SOL     OW 8324   3.737   1.338   4.314 -0.3949 -0.3689 -0.7259
 2567SOL    HW1 8325   3.717   1.282   4.234 -1.8859 -2.5540  1.0785
 2567SOL    HW2 8326   3.682   1.422   4.310  0.7969  0.4040 -2.7370
 2568SOL     OW 8327   2.451   4.067   1.024 -0.0086  0.2749 -0.6909
 2568SOL    HW1 8328   2.416   4.092   0.934 -0.7935  3.4142  0.3518
 2568SOL    HW2 8329   2.379   4.080   1.092  1.2929  0.5188  0.6944
 2569SOL     OW 8330   3.712   0.649   0.353 -0.6685 -0.5162 -0.4812
 2569SOL    HW1 8331   3.761   0.630   0.268  0.0801  2.0387 -0.6853
 2569SOL    HW2 8332   3.774   0.693   0.418 -2.2714  1.3650 -0.1635
 2570SOL     OW 8333   1.781   3.245   1.306 -0.2296 -0.3495 -0.3578
 2570SOL    HW1 8334   1.819   3.306   1.236  1.0935  0.7898  1.2911
 2570SOL    HW2 8335   1.854   3.185   1.340 -0.8909 -0.9638 -0.0147
 2571SOL     OW 8336   3.061   4.573   0.380 -0.4805  0.1613  0.0938
 2571SOL    HW1 8337   2.974   4.621   0.390  0.1821  1.9441 -1.9712
 2571SOL    HW2 8338   3.134   4.626   0.422 -0.0012  0.1168 -0.6532
 2572SOL     OW 8339   3.411   3.822   1.282  0.3332 -0.2021 -0.9341
 2572SOL    HW1 8340   3.497   3.792   1.241  0.3720  0.1339 -1.1046
 2572SOL    HW2 8341   3.423   3.911   1.325  0.8145 -1.4366  1.6319
 2573SOL     OW 8342   2.138   3.534   4.543  0.1053 -0.0756 -0.3223
 2573SOL    HW1 8343   2.161   3.579   4.457 -1.1823  0.1908 -0.5361
 2573SOL    HW2 8344   2.212   3.471   4.568 -0.0893 -1.1515 -2.2910
 2574SOL     OW 8345   3.153   4.843   0.925 -0.8714 -0.0182  0.0482
 2574SOL    HW1 8346   3.205   4.759   0.937 -0.7349  0.1946  0.9979
 2574SOL    HW2 8347   3.174   4.906   0.999 -0.3618  1.1706 -1.0591
 2575SOL     OW 8348   3.043   3.012   0.512  1.0343 -0.4950  0.1996
 2575SOL    HW1 8349   3.081   2.923   0.537 -0.2470 -1.0971  0.1166
 2575SOL    HW2 8350   2.968   3.035   0.574  1.0708  0.3381 -0.0440
 2576SOL     OW 8351   2.950   0.355   3.717  0.3784 -0.0728  0.1203
 2576SOL    HW1 8352   3.022   0.314   3.772 -0.2364  0.3472  1.2824
 2576SOL    HW2 8353   2.982   0.369   3.623  1.7676  0.0374  0.5996
 2577SOL     OW 8354   1.796   2.286   1.135  0.3405  0.2827 -0.4080
 2577SOL    HW1 8355   1.705   2.328   1.140  0.2269 -0.0559  0.7235
 2577SOL    HW2 8356   1.792   2.194   1.175  0.8013 -0.4401 -1.9531
 2578SOL     OW 8357   0.578   2.046   4.701 -0.5126 -0.0702  0.0991
 2578SOL    HW1 8358   0.621   1.994   4.628 -2.4590  0.7983 -1.8061
 2578SOL    HW2 8359   0.572   1.990   4.783  1.7139 -1.1032 -0.3588
 2579SOL     OW 8360   1.819   0.205   1.234  0.2612  0.2860 -0.1399
 2579SOL    HW1 8361   1.867   0.289   1.207  1.3735  0.5692  2.4772
 2579SOL    HW2 8362   1.797   0.152   1.152  3.2904  1.1013 -1.6440
 2580SOL     OW 8363   3.069   2.711   4.626 -0.1714 -0.2384  0.0139
 2580SOL    HW1 8364   3.143   2.656   4.666 -1.5070 -1.5023  0.8532
 2580SOL    HW2 8365   3.069   2.801   4.668  0.4542 -0.4674  0.5336
 2581SOL     OW 8366   3.175   3.100   3.007 -0.0671 -0.4441 -0.3639
 2581SOL    HW1 8367   3.179   3.197   2.982 -0.8841 -0.8265 -2.1225
 2581SOL    HW2 8368   3.164   3.092   3.106 -1.9674  1.3322 -0.3536
 2582SOL     OW 8369   4.586   1.961   3.177 -0.2477 -0.2186 -0.0186
 2582SOL    HW1 8370   4.588   2.059   3.158  0.8097 -0.7070 -2.9619
 2582SOL    HW2 8371   4.633   1.912   3.103 -3.1015 -3.1602 -0.1149
 2583SOL     OW 8372   0.440   3.392   4.495  0.4896  0.1692  0.2656
 2583SOL    HW1 8373   0.443   3.332   4.575 -0.4907 -1.3422 -0.7883
 2583SOL    HW2 8374   0.513   3.460   4.502  0.8635 -0.3669  2.0924
 2584SOL     OW 8375   1.855   3.997   0.812 -0.3550  0.1588 -0.0406
 2584SOL    HW1 8376   1.786   4.053   0.858 -0.3223 -0.2742  0.5537
 2584SOL    HW2 8377   1.810   3.930   0.753 -0.4076  0.5135 -0.4077
 2585SOL     OW 8378   2.304   0.873   2.343  0.2486 -0.3116 -0.1507
 2585SOL    HW1 8379   2.307   0.786   2.392  1.1241  0.0854  0.5133
 2585SOL    HW2 8380   2.352   0.943   2.396  0.2432  0.3879 -1.0529
 2586SOL     OW 8381   0.825   0.497   0.806  0.2697  0.7608  0.3759
 2586SOL    HW1 8382   0.871   0.459   0.886  0.1254 -0.7858 -0.2495
 2586SOL    HW2 8383   0.888   0.553   0.754  0.4606  1.5029  1.3707
 2587SOL     OW 8384   4.244   3.000   2.079 -0.3811 -0.0420  0.2459
 2587SOL    HW1 8385   4.147   3.013   2.100 -0.2880 -0.0447  0.6998
 2587SOL    HW2 8386   4.262   3.027   1.985 -1.0638 -1.2095 -0.2358
 2588SOL     OW 8387   3.701   0.925   0.395 -0.2536 -0.2567 -0.0723
 2588SOL    HW1 8388   3.694   0.839   0.344 -2.1859  0.8240 -1.7927
 2588SOL    HW2 8389   3.726   0.906   0.490 -1.5629 -2.7938 -0.1512
 2589SOL     OW 8390   3.859   4.658   2.832  0.4365 -0.7119  0.2467
 2589SOL    HW1 8391   3.857   4.675   2.931  0.5515 -0.2832  0.1742
 2589SOL    HW2 8392   3.834   4.562   2.815  0.0380 -0.6894  0.6646
 2590SOL     OW 8393   3.302   0.360   1.481  0.0147  0.1671  0.1906
 2590SOL    HW1 8394   3.248   0.281   1.510  1.5893 -1.1642 -0.3541
 2590SOL    HW2 8395   3.367   0.385   1.552  0.1945  0.3518 -0.0360
 2591SOL     OW 8396   0.102   4.354   4.098  0.1823 -0.3958  0.4710
 2591SOL    HW1 8397   0.051   4.413   4.036  1.4847  0.0245 -0.2470
 2591SOL    HW2 8398   0.128   4.406   4.180  2.6662  0.6070 -0.8370
 2592SOL     OW 8399   4.324   0.420   0.077  0.3972 -0.0784  0.1666
 2592SOL    HW1 8400   4.405   0.436   0.020  0.9031  0.4831  1.0019
 2592SOL    HW2 8401   4.258   0.365   0.027 -0.0573  2.0348 -1.7221
 2593SOL     OW 8402   2.170   1.117   4.064 -0.2535  0.8152 -0.0199
 2593SOL    HW1 8403   2.230   1.038   4.077  0.2374  0.8415 -1.8222
 2593SOL    HW2 8404   2.079   1.086   4.039 -0.0066  0.8022 -0.9335
 2594SOL     OW 8405   1.150   2.964   2.275 -0.2861 -0.5546 -0.0221
 2594SOL    HW1 8406   1.096   3.027   2.220 -0.0130 -1.1653 -1.0036
 2594SOL    HW2 8407   1.092   2.891   2.311  0.0006 -1.7303 -1.8328
 2595SOL     OW 8408   3.209   2.789   2.670  0.7793  0.0704  0.3778
 2595SOL    HW1 8409   3.176   2.726   2.599 -1.7293 -0.2598  1.7095
 2595SOL    HW2 8410   3.195   2.883   2.640  0.5082 -0.0619  0.0798
 2596SOL     OW 8411   4.680   2.528   1.866  0.0481 -0.9061  0.5436
 2596SOL    HW1 8412   4.661   2.626   1.874  0.8164 -0.6838 -0.2333
 2596SOL    HW2 8413   4.625   2.490   1.791  0.8982 -0.7345 -0.1848
 2597SOL     OW 8414   2.357   1.632   2.158  0.2408  0.2013 -0.1520
 2597SOL    HW1 8415   2.355   1.532   2.158  0.1175  0.1259 -3.0729
 2597SOL    HW2 8416   2.296   1.666   2.229  1.1730 -1.7357  1.7128
 2598SOL     OW 8417   4.585   1.482   3.541 -0.7304  0.2380 -1.0246
 2598SOL    HW1 8418   4.576   1.571   3.586 -0.1824 -0.6345  0.9017
 2598SOL    HW2 8419   4.583   1.495   3.442  1.4546  2.6292 -0.8549
 2599SOL     OW 8420   1.954   0.526   1.408 -0.6324 -0.0284 -0.3507
 2599SOL    HW1 8421   1.943   0.605   1.349  0.0085  0.3587  0.0319
 2599SOL    HW2 8422   2.044   0.485   1.392 -0.4490  0.0896  0.3662
 2600SOL     OW 8423   4.035   3.937   2.080  0.5304 -0.5428 -0.0846
 2600SOL    HW1 8424   4.041   4.002   2.156 -0.6155  0.3161 -0.7061
 2600SOL    HW2 8425   3.982   3.856   2.108 -0.1696 -0.0806 -0.0536
 2601SOL     OW 8426   1.691   4.552   2.754  0.1098 -0.7587 -0.6484
 2601SOL    HW1 8427   1.769   4.543   2.816 -1.1682 -0.6637  1.0426
 2601SOL    HW2 8428   1.643   4.465   2.746 -0.8004 -0.3378 -0.0053
 2602SOL     OW 8429   3.131   0.784   0.426 -0.5025  0.0907 -0.0482
 2602SOL    HW1 8430   3.085   0.795   0.338 -1.5889  1.1509  0.6155
 2602SOL    HW2 8431   3.132   0.687   0.451 -0.6154 -0.1670 -0.9871
 2603SOL     OW 8432   2.387   0.525   3.100  0.1088  0.1181 -0.1598
 2603SOL    HW1 8433   2.352   0.608   3.144 -0.1130 -0.6044  1.0936
 2603SOL    HW2 8434   2.393   0.539   3.001 -1.0635  1.2182 -0.0989
 2604SOL     OW 8435   4.218   2.014   3.152 -0.0083 -0.4123 -0.3555
 2604SOL    HW1 8436   4.124   2.044   3.136  0.1682  0.8505  0.7355
 2604SOL    HW2 8437   4.279   2.061   3.087  0.0403  0.0559  0.0216
 2605SOL     OW 8438   4.327   2.092   4.178  0.5903  0.3060  0.4760
 2605SOL    HW1 8439   4.343   2.135   4.089  2.1239  2.3385  1.6453
 2605SOL    HW2 8440   4.230   2.073   4.189  0.4100 -0.3902 -1.7705
 2606SOL     OW 8441   4.468   1.928   2.382  0.1729 -0.1023 -0.0790
 2606SOL    HW1 8442   4.423   2.015   2.360  0.3795  0.0470  0.0847
 2606SOL    HW2 8443   4.564   1.945   2.405  0.7944 -0.6137 -2.1445
 2607SOL     OW 8444   3.348   2.201   0.201  0.0623  0.0843 -0.0654
 2607SOL    HW1 8445   3.385   2.166   0.287 -0.8363  1.1793  0.7989
 2607SOL    HW2 8446   3.372   2.298   0.192 -0.5933  0.2007 -0.6247
 2608SOL     OW 8447   3.219   4.845   4.482  0.2325  0.3770  0.2514
 2608SOL    HW1 8448   3.236   4.943   4.495  0.0002  0.2418  1.7242
 2608SOL    HW2 8449   3.219   4.799   4.571  0.9185 -1.0657 -0.4603
 2609SOL     OW 8450   3.260   4.670   2.363  0.0488 -0.0234 -0.0661
 2609SOL    HW1 8451   3.335   4.711   2.415  0.0119 -2.4726  2.1406
 2609SOL    HW2 8452   3.209   4.742   2.317  1.6786  2.0648  1.1687
 2610SOL     OW 8453   1.545   1.479   2.731 -0.0765 -0.0623  0.4652
 2610SOL    HW1 8454   1.578   1.463   2.638  3.3152  1.3863  1.2820
 2610SOL    HW2 8455   1.471   1.414   2.751  1.0915 -2.4592 -2.1968
 2611SOL     OW 8456   2.316   4.439   1.213 -0.5903 -0.9494  1.0467
 2611SOL    HW1 8457   2.408   4.454   1.249 -0.2892 -1.1084  0.3784
 2611SOL    HW2 8458   2.288   4.345   1.230  0.6760 -1.8740 -1.4763
 2612SOL     OW 8459   3.727   4.332   3.841 -0.3120 -0.1451  1.2058
 2612SOL    HW1 8460   3.654   4.379   3.792  2.5404  1.8095 -1.5221
 2612SOL    HW2 8461   3.773   4.396   3.903  1.6446 -0.1124 -0.2022
 2613SOL     OW 8462   3.484   1.131   2.334 -0.7411  0.0014  0.2971
 2613SOL    HW1 8463   3.507   1.173   2.246  0.6921  0.4309  0.8464
 2613SOL    HW2 8464   3.423   1.192   2.385 -1.8204 -0.3828 -0.5014
 2614SOL     OW 8465   3.662   4.817   2.698  0.0817 -0.6579  0.7579
 2614SOL    HW1 8466   3.637   4.737   2.644  1.3650 -0.1469 -0.6648
 2614SOL    HW2 8467   3.735   4.792   2.762  0.4588 -0.6400  0.3376
 2615SOL     OW 8468   3.892   4.212   3.382 -0.0521 -0.4715 -0.3158
 2615SOL    HW1 8469   3.942   4.200   3.296 -0.3899  0.6116 -0.6884
 2615SOL    HW2 8470   3.801   4.172   3.374 -0.5794  0.8071 -0.9619
 2616SOL     OW 8471   4.408   4.586   1.895  0.1879 -0.2616  0.8297
 2616SOL    HW1 8472   4.497   4.586   1.849 -0.1764  3.2167 -0.1603
 2616SOL    HW2 8473   4.335   4.590   1.826 -0.6158 -0.3019  1.6595
 2617SOL     OW 8474   2.515   4.399   3.848  0.4701  0.4063  0.1500
 2617SOL    HW1 8475   2.461   4.427   3.928 -0.5588 -1.8867  0.3645
 2617SOL    HW2 8476   2.569   4.318   3.872 -0.4176 -0.7807 -1.6069
 2618SOL     OW 8477   1.352   0.981   0.012 -0.1036  0.2979 -0.1114
 2618SOL    HW1 8478   1.295   0.911   0.054 -1.4762  0.8472 -0.9850
 2618SOL    HW2 8479   1.389   1.042   0.082  0.0250 -0.5017  0.5245
 2619SOL     OW 8480   1.737   1.579   1.206 -0.5277 -0.2909 -0.3667
 2619SOL    HW1 8481   1.785   1.646   1.149  2.1683 -3.2655 -1.9131
 2619SOL    HW2 8482   1.665   1.535   1.151  1.3671 -2.4001 -1.3395
 2620SOL     OW 8483   2.119   0.269   2.959 -0.1036 -0.3388  0.0079
 2620SOL    HW1 8484   2.139   0.273   3.057  0.5952 -0.8911 -0.1086
 2620SOL    HW2 8485   2.079   0.356   2.930 -0.4754 -0.2297  0.8128
 2621SOL     OW 8486   0.335   3.694   4.761 -0.0230 -0.1233 -0.7664
 2621SOL    HW1 8487   0.286   3.607   4.755 -0.1978 -0.1693  0.8280
 2621SOL    HW2 8488   0.433   3.678   4.760 -0.0099 -0.6179  1.8127
 2622SOL     OW 8489   0.771   0.190   2.453 -0.1127  0.3282 -0.1914
 2622SOL    HW1 8490   0.732   0.108   2.411  2.8984  0.0243 -2.7572
 2622SOL    HW2 8491   0.832   0.163   2.528  0.0367  0.2870 -0.3263
 2623SOL     OW 8492   0.208   2.539   2.151  0.2945  0.2294 -0.2826
 2623SOL    HW1 8493   0.163   2.466   2.203 -0.7818  0.1994 -1.2289
 2623SOL    HW2 8494   0.160   2.625   2.165  1.3073  0.6962  0.4853
 2624SOL     OW 8495   1.572   1.326   3.038 -0.3270  0.1559 -0.1194
 2624SOL    HW1 8496   1.532   1.417   3.024 -0.1335  0.1058 -1.0868
 2624SOL    HW2 8497   1.505   1.257   3.011 -0.2654  0.0254  0.0631
 2625SOL     OW 8498   4.798   4.537   2.576  0.1595 -0.2286  0.7366
 2625SOL    HW1 8499   4.866   4.511   2.507 -0.5555 -0.0206 -0.0637
 2625SOL    HW2 8500   4.706   4.529   2.536 -0.1887  1.5582  1.1063
 2626SOL     OW 8501   1.470   0.030   0.812 -0.5580 -0.2418  0.0449
 2626SOL    HW1 8502   1.513   0.117   0.788  2.2763 -1.7084 -0.6184
 2626SOL    HW2 8503   1.393   0.013   0.752 -1.1233  1.7448  0.1355
 2627SOL     OW 8504   2.596   0.559   1.031  0.1481 -0.0879 -0.5226
 2627SOL    HW1 8505   2.574   0.596   1.121  1.3651  0.1681 -0.3125
 2627SOL    HW2 8506   2.528   0.591   0.964  0.6269  1.7866 -0.1717
 2628SOL     OW 8507   4.268   2.578   1.388  0.3858  0.5778 -0.0447
 2628SOL    HW1 8508   4.268   2.662   1.443  3.4412  0.2721  0.5995
 2628SOL    HW2 8509   4.215   2.508   1.435  0.2800  1.2568  0.8836
 2629SOL     OW 8510   0.067   4.259   1.461  0.1947 -0.0357 -0.6484
 2629SOL    HW1 8511   0.133   4.277   1.534  0.1210 -0.6370 -0.4347
 2629SOL    HW2 8512   0.099   4.184   1.404 -1.0156 -1.3958  0.3734
 2630SOL     OW 8513   3.957   2.486   2.765  0.2256  0.4060  0.5506
 2630SOL    HW1 8514   4.004   2.501   2.678 -2.4489 -1.7414 -1.4531
 2630SOL    HW2 8515   3.979   2.395   2.800 -1.0898  0.0319  0.4541
 2631SOL     OW 8516   1.690   3.202   0.389  0.4108  0.7534  0.3245
 2631SOL    HW1 8517   1.760   3.137   0.419  0.3371  1.3256  1.7956
 2631SOL    HW2 8518   1.676   3.193   0.290  1.1401 -0.7358  0.3381
 2632SOL     OW 8519   1.846   3.646   1.308  0.3142  0.1503  0.5413
 2632SOL    HW1 8520   1.846   3.632   1.209  0.0587 -1.0817  0.6993
 2632SOL    HW2 8521   1.939   3.664   1.340  0.4832 -0.0405  0.1560
 2633SOL     OW 8522   1.107   4.170   2.676  0.2711  0.4448 -0.3631
 2633SOL    HW1 8523   1.050   4.101   2.631  0.4208  0.3105 -0.3499
 2633SOL    HW2 8524   1.089   4.169   2.774  1.1480 -0.4272 -0.1915
 2634SOL     OW 8525   3.597   0.446   3.089 -0.3588  0.1553 -0.0657
 2634SOL    HW1 8526   3.514   0.437   3.033 -1.1461  0.1931  1.0729
 2634SOL    HW2 8527   3.673   0.473   3.030 -1.1989  0.3789 -1.0905
 2635SOL     OW 8528   2.246   4.633   1.031  0.4542  0.1339 -0.5173
 2635SOL    HW1 8529   2.279   4.561   1.091  0.6716  0.0566 -0.7309
 2635SOL    HW2 8530   2.147   4.645   1.045  0.7307  1.0720  0.8692
 2636SOL     OW 8531   0.845   0.462   3.036  0.6081  0.6075 -0.1497
 2636SOL    HW1 8532   0.848   0.560   3.017 -2.2348  0.6817 -0.6326
 2636SOL    HW2 8533   0.798   0.445   3.122 -0.3605 -0.3672 -0.8392
 2637SOL     OW 8534   3.045   3.670   0.704  0.6200 -0.5793  0.2698
 2637SOL    HW1 8535   3.072   3.765   0.686 -2.1948  0.4038  0.5874
 2637SOL    HW2 8536   2.950   3.657   0.674 -0.1447 -2.3924  3.1222
 2638SOL     OW 8537   1.164   1.637   3.095  0.0425 -0.0994  0.1812
 2638SOL    HW1 8538   1.158   1.679   3.004  0.3849  0.3676  0.3690
 2638SOL    HW2 8539   1.074   1.601   3.122  0.2248 -1.4565 -0.9067
 2639SOL     OW 8540   1.461   4.198   3.598  0.2531  0.3235 -0.4198
 2639SOL    HW1 8541   1.446   4.220   3.502 -0.3155 -2.5965 -1.0954
 2639SOL    HW2 8542   1.543   4.141   3.607  0.2541  0.4879  0.8449
 2640SOL     OW 8543   4.142   4.117   4.460  0.4035  0.2934  0.0176
 2640SOL    HW1 8544   4.124   4.042   4.397  0.0711  1.8251 -1.7991
 2640SOL    HW2 8545   4.085   4.106   4.542  0.0207 -1.1612 -0.4088
 2641SOL     OW 8546   4.746   4.809   2.412 -0.3044 -0.6153 -0.4910
 2641SOL    HW1 8547   4.801   4.891   2.399 -0.5653 -0.6150 -1.7369
 2641SOL    HW2 8548   4.710   4.807   2.505  1.1486 -0.2337  0.1056
 2642SOL     OW 8549   4.266   3.085   3.320 -0.0876 -0.0808 -0.6663
 2642SOL    HW1 8550   4.236   3.033   3.400  0.4110 -1.3033 -1.2625
 2642SOL    HW2 8551   4.187   3.107   3.263 -0.3424  0.1139 -0.2441
 2643SOL     OW 8552   3.305   2.665   2.059 -0.1353  0.2134 -0.9196
 2643SOL    HW1 8553   3.220   2.625   2.095  0.3847  1.7296  2.4047
 2643SOL    HW2 8554   3.287   2.705   1.969 -2.8056 -0.0446 -0.6021
 2644SOL     OW 8555   3.259   0.531   2.193 -0.1973 -0.1823  1.0138
 2644SOL    HW1 8556   3.243   0.594   2.269  0.5840 -0.0528  1.0769
 2644SOL    HW2 8557   3.237   0.577   2.107 -1.1615 -0.3562  1.1498
 2645SOL     OW 8558   2.959   1.230   4.172  0.8860  0.3227  0.1531
 2645SOL    HW1 8559   3.020   1.273   4.105  2.0332 -2.4771 -0.7351
 2645SOL    HW2 8560   3.001   1.233   4.263  0.9825  0.9588  0.0925
 2646SOL     OW 8561   3.259   0.540   2.679 -0.2161 -0.2546  0.0192
 2646SOL    HW1 8562   3.344   0.489   2.696  0.2990 -0.8395 -3.6587
 2646SOL    HW2 8563   3.220   0.569   2.767  2.7486 -1.5878  1.9289
 2647SOL     OW 8564   2.550   3.545   1.223  0.1415  0.4168  0.2670
 2647SOL    HW1 8565   2.629   3.526   1.282  0.1800 -1.0436 -0.2185
 2647SOL    HW2 8566   2.494   3.617   1.265  1.4174  1.0855  0.8927
 2648SOL     OW 8567   3.506   1.845   2.986  0.6870 -0.5382 -0.5692
 2648SOL    HW1 8568   3.540   1.787   3.060 -0.0173  0.2024  0.3485
 2648SOL    HW2 8569   3.425   1.895   3.016  1.6798  1.4960 -1.0634
 2649SOL     OW 8570   3.960   1.998   3.840  0.3098 -0.1955  0.2787
 2649SOL    HW1 8571   4.052   2.025   3.812  0.4880 -0.0181  1.0024
 2649SOL    HW2 8572   3.904   2.080   3.855 -0.2146 -0.3154 -0.9281
 2650SOL     OW 8573   2.744   3.446   2.334 -0.1416  0.1546  0.7174
 2650SOL    HW1 8574   2.813   3.518   2.342 -1.3171  1.3119  0.8118
 2650SOL    HW2 8575   2.685   3.448   2.415 -0.4743 -0.6225  0.4979
 2651SOL     OW 8576   0.584   4.381   0.527 -0.2448  0.7449  0.3448
 2651SOL    HW1 8577   0.547   4.378   0.619 -3.0265 -2.6847 -0.6744
 2651SOL    HW2 8578   0.524   4.435   0.468  0.5836  1.4679  0.1295
 2652SOL     OW 8579   2.299   0.257   2.453 -0.3399 -0.0454 -0.1400
 2652SOL    HW1 8580   2.274   0.258   2.550  0.7145  2.3484  0.2007
 2652SOL    HW2 8581   2.382   0.312   2.440 -1.2994  0.9603 -2.5925
 2653SOL     OW 8582   0.319   1.006   1.403 -0.2376  0.6514 -0.2153
 2653SOL    HW1 8583   0.261   1.071   1.451 -1.6079 -0.6113 -0.0860
 2653SOL    HW2 8584   0.282   0.914   1.414  3.4498 -0.7742  2.5355
 2654SOL     OW 8585   3.481   1.906   3.628 -0.2895  0.2909 -0.1424
 2654SOL    HW1 8586   3.413   1.979   3.613  1.4439  2.3573  1.5216
 2654SOL    HW2 8587   3.441   1.818   3.602 -2.8423  1.6661 -1.2412
 2655SOL     OW 8588   2.811   1.357   4.775 -0.0441 -0.5653  0.1092
 2655SOL    HW1 8589   2.833   1.297   4.852 -1.5252 -2.3117 -0.7630
 2655SOL    HW2 8590   2.862   1.328   4.695 -0.4644 -0.4006 -0.2208
 2656SOL     OW 8591   0.270   0.214   2.302 -0.0808 -0.7837 -0.0811
 2656SOL    HW1 8592   0.225   0.221   2.213  0.4531 -1.9324 -0.4580
 2656SOL    HW2 8593   0.325   0.295   2.318  0.4546 -0.9168 -1.1659
 2657SOL     OW 8594   4.249   0.106   3.234  0.1130  0.1057 -0.3220
 2657SOL    HW1 8595   4.254   0.137   3.139 -2.3899  2.5176  0.1937
 2657SOL    HW2 8596   4.206   0.177   3.289  1.4747 -1.2267  2.6670
 2658SOL     OW 8597   1.590   1.441   0.219 -0.2519  0.6870  0.1163
 2658SOL    HW1 8598   1.592   1.538   0.245  1.0109  0.6579  0.2296
 2658SOL    HW2 8599   1.499   1.404   0.235 -0.7832  1.8787 -0.0167
 2659SOL     OW 8600   3.318   4.525   4.665  0.2897 -0.3594 -0.5591
 2659SOL    HW1 8601   3.343   4.591   4.737  1.0396 -3.1091  1.9158
 2659SOL    HW2 8602   3.399   4.500   4.612  0.9039 -1.9752  1.0162
 2660SOL     OW 8603   0.373   0.539   3.480  0.2477 -0.4803 -0.3349
 2660SOL    HW1 8604   0.460   0.490   3.483  0.6015  0.0246 -1.6461
 2660SOL    HW2 8605   0.380   0.615   3.416 -0.6514  0.6031  0.8064
 2661SOL     OW 8606   2.293   0.325   3.462  0.0614  0.4148 -0.3020
 2661SOL    HW1 8607   2.326   0.415   3.491 -0.7152  1.0544 -1.3536
 2661SOL    HW2 8608   2.347   0.254   3.508 -0.3081  1.3766  1.7616
 2662SOL     OW 8609   4.568   1.180   0.235 -0.1013  0.5599 -0.0286
 2662SOL    HW1 8610   4.629   1.228   0.299  0.6224  0.5920 -0.7238
 2662SOL    HW2 8611   4.482   1.159   0.281  0.3360  0.7331  0.9074
 2663SOL     OW 8612   2.045   2.617   0.655  0.1955 -0.1570 -0.3379
 2663SOL    HW1 8613   2.094   2.574   0.731 -1.2412  0.3558  0.9322
 2663SOL    HW2 8614   2.090   2.595   0.569  2.2351 -0.2697  0.7062
 2664SOL     OW 8615   0.291   0.475   1.579 -0.1681 -0.4229 -0.3516
 2664SOL    HW1 8616   0.263   0.478   1.483 -0.4275 -0.8910 -0.2900
 2664SOL    HW2 8617   0.281   0.566   1.619  0.5557 -0.0753 -0.9412
 2665SOL     OW 8618   4.636   0.372   3.621 -0.6588  0.0135 -0.3695
 2665SOL    HW1 8619   4.620   0.459   3.574  0.2475  0.0547 -0.6098
 2665SOL    HW2 8620   4.661   0.390   3.716 -2.6166 -0.0735  0.2050
 2666SOL     OW 8621   0.164   4.599   3.534  0.3798 -0.2886 -0.0047
 2666SOL    HW1 8622   0.071   4.564   3.528  0.8406 -1.5078 -0.2447
 2666SOL    HW2 8623   0.190   4.639   3.446 -0.4694  1.5761  0.5360
 2667SOL     OW 8624   4.659   1.096   3.490 -0.1200  0.6049  0.2365
 2667SOL    HW1 8625   4.560   1.090   3.480 -0.2307  2.0635  0.2159
 2667SOL    HW2 8626   4.687   1.048   3.573 -0.6508 -1.0004 -0.4673
 2668SOL     OW 8627   2.515   4.838   4.375 -0.0501 -0.0375 -0.7496
 2668SOL    HW1 8628   2.551   4.931   4.387 -2.6699  1.1882 -1.5017
 2668SOL    HW2 8629   2.500   4.820   4.278  0.4625 -1.3064 -0.6161
 2669SOL     OW 8630   2.421   0.586   0.202  0.3064 -0.1239 -0.4687
 2669SOL    HW1 8631   2.472   0.502   0.181 -0.0013 -0.4048 -0.1048
 2669SOL    HW2 8632   2.474   0.665   0.171  1.5434 -0.3394  0.9826
 2670SOL     OW 8633   3.697   0.344   1.585 -0.5500 -0.0901 -0.2956
 2670SOL    HW1 8634   3.621   0.381   1.640 -0.7722  1.1664 -1.3937
 2670SOL    HW2 8635   3.661   0.305   1.500 -0.3154 -2.9266  0.7987
 2671SOL     OW 8636   1.938   2.487   4.547  0.0193 -0.6497 -0.1471
 2671SOL    HW1 8637   2.013   2.529   4.497 -0.7276  0.2982 -0.4903
 2671SOL    HW2 8638   1.961   2.391   4.567  1.9499  0.0006  1.0582
 2672SOL     OW 8639   2.936   1.353   1.339  0.4068 -0.0730  0.0493
 2672SOL    HW1 8640   2.887   1.418   1.397  1.3017  0.6075  0.0493
 2672SOL    HW2 8641   2.956   1.270   1.392 -0.3655 -0.1886  0.1697
 2673SOL     OW 8642   3.339   2.956   4.547 -0.4505  0.3364 -0.3381
 2673SOL    HW1 8643   3.352   2.968   4.449  1.3469  2.3694  0.0656
 2673SOL    HW2 8644   3.382   2.871   4.577 -0.6326 -0.0792 -1.2475
 2674SOL     OW 8645   1.833   1.152   0.668  0.4853  0.1413  0.1622
 2674SOL    HW1 8646   1.787   1.224   0.617 -0.3291 -0.5293 -0.0652
 2674SOL    HW2 8647   1.766   1.104   0.725  0.9942 -0.5382  0.1931
 2675SOL     OW 8648   4.516   2.760   4.466 -0.1117 -0.0418  0.6116
 2675SOL    HW1 8649   4.489   2.667   4.442 -0.2882 -0.2350  1.5289
 2675SOL    HW2 8650   4.614   2.771   4.453 -0.0039 -0.5190  0.9847
 2676SOL     OW 8651   1.508   3.199   0.576 -0.2377 -0.3049 -0.0232
 2676SOL    HW1 8652   1.568   3.188   0.496  0.4598 -0.0740  0.4581
 2676SOL    HW2 8653   1.464   3.112   0.596  0.0370 -0.5161 -0.3092
 2677SOL     OW 8654   3.990   0.939   3.761 -0.4647 -0.2177 -0.6214
 2677SOL    HW1 8655   3.996   1.031   3.723  0.7381  0.6844  1.6015
 2677SOL    HW2 8656   3.944   0.941   3.849  1.1976 -1.4124  0.3360
 2678SOL     OW 8657   1.691   3.559   4.491 -0.3300 -0.2605  0.0141
 2678SOL    HW1 8658   1.756   3.514   4.430 -0.4512 -1.4477  0.7159
 2678SOL    HW2 8659   1.727   3.649   4.518  0.8166 -0.7027  0.0270
 2679SOL     OW 8660   0.763   2.257   4.484  0.3848 -0.2646  0.2334
 2679SOL    HW1 8661   0.714   2.329   4.534 -0.6766 -2.6999  3.0368
 2679SOL    HW2 8662   0.703   2.178   4.473  1.2197 -0.5525 -3.5023
 2680SOL     OW 8663   2.555   0.412   2.470 -0.1043  0.1841  0.2116
 2680SOL    HW1 8664   2.498   0.458   2.401  0.9672  0.9212 -0.2217
 2680SOL    HW2 8665   2.636   0.375   2.425  1.2564  1.7857  1.2253
 2681SOL     OW 8666   3.738   3.746   0.522 -0.3251 -0.4366  0.5460
 2681SOL    HW1 8667   3.652   3.735   0.571 -0.4966 -0.9796  0.1319
 2681SOL    HW2 8668   3.768   3.842   0.528 -0.3176 -0.4972  1.7296
 2682SOL     OW 8669   4.266   2.704   4.290  0.0287 -0.4217 -0.2353
 2682SOL    HW1 8670   4.169   2.699   4.267 -0.3799 -2.1876  1.5224
 2682SOL    HW2 8671   4.283   2.786   4.346 -0.3316  0.1655 -0.9752
 2683SOL     OW 8672   1.866   4.902   0.599  0.5114 -0.2460 -0.0475
 2683SOL    HW1 8673   1.794   4.932   0.538  0.3183 -2.1813 -0.8436
 2683SOL    HW2 8674   1.826   4.867   0.684  0.6440  0.3372  0.2621
 2684SOL     OW 8675   0.202   2.416   1.524  0.4540 -0.0296 -0.1354
 2684SOL    HW1 8676   0.183   2.382   1.431 -0.2354  1.0728 -0.4142
 2684SOL    HW2 8677   0.116   2.439   1.569  0.8756  0.7663  0.2719
 2685SOL     OW 8678   3.791   3.820   2.659 -0.0334 -0.5904 -0.6451
 2685SOL    HW1 8679   3.794   3.738   2.602 -1.3068 -0.8703 -0.3532
 2685SOL    HW2 8680   3.835   3.896   2.612  1.3284 -1.4716 -0.8440
 2686SOL     OW 8681   3.836   2.699   2.916  0.0850  0.2070  0.0709
 2686SOL    HW1 8682   3.786   2.740   2.839 -0.5167 -0.4137  0.1238
 2686SOL    HW2 8683   3.872   2.610   2.888  3.0516  1.5053 -0.6820
 2687SOL     OW 8684   4.007   0.984   0.662  0.0411  0.4160  0.2951
 2687SOL    HW1 8685   3.947   0.905   0.677  0.9058 -0.1489  0.8147
 2687SOL    HW2 8686   4.099   0.952   0.641  0.9505  1.2672  2.6829
 2688SOL     OW 8687   3.783   0.016   0.970  0.6300 -0.1719 -0.5400
 2688SOL    HW1 8688   3.741   0.099   0.934  1.4855  1.2155  1.4832
 2688SOL    HW2 8689   3.862   0.040   1.026  1.2054 -2.4011 -0.3048
 2689SOL     OW 8690   0.542   4.136   1.178 -0.1088 -0.0849 -0.5321
 2689SOL    HW1 8691   0.605   4.102   1.108 -1.5956 -0.1980 -1.8504
 2689SOL    HW2 8692   0.569   4.228   1.206  0.2044  0.1625 -1.6253
 2690SOL     OW 8693   3.570   0.284   1.359 -0.1842 -0.0588 -0.4599
 2690SOL    HW1 8694   3.555   0.185   1.350  0.8121 -0.4783  1.6856
 2690SOL    HW2 8695   3.483   0.331   1.361 -0.8117 -1.1969  0.9609
 2691SOL     OW 8696   3.947   1.477   3.202 -0.0174  0.3511  0.1711
 2691SOL    HW1 8697   4.027   1.501   3.257  0.9319 -1.1187 -0.4886
 2691SOL    HW2 8698   3.928   1.379   3.212 -1.9629  0.7257  0.5694
 2692SOL     OW 8699   0.660   0.691   0.388 -0.6070 -0.0115 -0.2890
 2692SOL    HW1 8700   0.710   0.718   0.306 -2.7064 -0.0254 -1.6309
 2692SOL    HW2 8701   0.667   0.764   0.456  0.6872  0.2375 -0.6579
 2693SOL     OW 8702   1.570   4.905   4.516 -0.1789  0.2486  0.0455
 2693SOL    HW1 8703   1.582   4.920   4.417 -1.2574 -1.2456 -0.3477
 2693SOL    HW2 8704   1.617   4.821   4.542 -1.7515 -0.5623  0.3410
 2694SOL     OW 8705   3.979   2.272   1.936  0.1445 -0.5632 -0.2806
 2694SOL    HW1 8706   3.924   2.347   1.974 -1.0462 -1.6719  0.2748
 2694SOL    HW2 8707   4.074   2.283   1.965 -0.1791  0.2475  0.5315
 2695SOL     OW 8708   1.305   2.311   2.046 -0.4042  0.0257  0.1709
 2695SOL    HW1 8709   1.401   2.283   2.052 -0.0266  0.5287 -2.2928
 2695SOL    HW2 8710   1.292   2.398   2.093  0.6998  0.6597 -0.6384
 2696SOL     OW 8711   2.194   1.062   1.371  0.2879  0.2186  0.8829
 2696SOL    HW1 8712   2.205   1.073   1.470  1.1451  1.4361  0.6633
 2696SOL    HW2 8713   2.111   1.010   1.353  0.3438 -0.3930  2.2540
 2697SOL     OW 8714   1.964   0.017   2.337  0.4424 -0.3107 -0.0854
 2697SOL    HW1 8715   1.895  -0.055   2.349 -1.0470  1.1240  0.4004
 2697SOL    HW2 8716   1.949   0.089   2.404  1.3292  0.8698 -1.1035
 2698SOL     OW 8717   4.249   0.925   0.561  0.2835  0.0872  0.0273
 2698SOL    HW1 8718   4.317   0.856   0.585  1.4857  0.6801 -1.4721
 2698SOL    HW2 8719   4.281   1.015   0.592  0.1846  0.3683 -0.6677
 2699SOL     OW 8720   2.382   4.505   3.637 -0.0557 -0.0454  0.3711
 2699SOL    HW1 8721   2.296   4.456   3.624 -0.6607  0.3537  2.5008
 2699SOL    HW2 8722   2.432   4.465   3.713  1.3733  0.1201 -0.4518
 2700SOL     OW 8723   1.009   4.841   3.288 -0.4695 -0.2403  0.5186
 2700SOL    HW1 8724   1.030   4.934   3.321 -0.3649  1.3446 -3.4795
 2700SOL    HW2 8725   1.094   4.794   3.264 -0.6524 -0.5111  0.3989
 2701SOL     OW 8726   2.343   4.103   2.972  0.2562 -0.5101 -0.5422
 2701SOL    HW1 8727   2.388   4.192   2.960 -0.5208 -0.1870 -1.2308
 2701SOL    HW2 8728   2.330   4.061   2.882  0.0749 -1.0474 -0.2672
 2702SOL     OW 8729   2.611   3.262   4.417  0.1602 -0.8623  0.0972
 2702SOL    HW1 8730   2.564   3.178   4.446 -0.5561  0.1338  2.0253
 2702SOL    HW2 8731   2.685   3.282   4.482  1.0612 -0.5834 -0.9858
 2703SOL     OW 8732   0.662   3.137   3.449 -0.2875 -0.2961  0.3266
 2703SOL    HW1 8733   0.711   3.223   3.463 -0.3395 -0.0351 -0.9440
 2703SOL    HW2 8734   0.573   3.142   3.495  0.6983 -0.6412  2.3425
 2704SOL     OW 8735   2.104   3.755   4.748  0.0618  0.2742  0.8119
 2704SOL    HW1 8736   2.132   3.818   4.675 -2.0489 -0.7476 -0.9661
 2704SOL    HW2 8737   2.159   3.672   4.744 -1.1615 -0.4925 -0.7661
 2705SOL     OW 8738   4.554   3.591   4.062 -0.2862 -0.1093 -0.0229
 2705SOL    HW1 8739   4.591   3.560   3.975 -3.6438 -1.8313 -1.0285
 2705SOL    HW2 8740   4.557   3.517   4.129 -2.1409 -0.4770 -0.2845
 2706SOL     OW 8741   2.445   4.603   2.512 -0.3566  0.3872 -0.1404
 2706SOL    HW1 8742   2.436   4.698   2.482  1.4252  0.9105  0.8665
 2706SOL    HW2 8743   2.469   4.545   2.433 -3.8736  0.2611 -1.2755
 2707SOL     OW 8744   1.829   4.238   3.722 -0.3216  0.2914 -0.2576
 2707SOL    HW1 8745   1.925   4.259   3.741 -0.0817 -0.0854 -0.9983
 2707SOL    HW2 8746   1.795   4.301   3.652 -1.1824  1.6460  1.2913
 2708SOL     OW 8747   1.761   4.367   4.321 -0.3974  0.3523 -0.1242
 2708SOL    HW1 8748   1.690   4.424   4.361 -1.1152  0.6079 -1.7039
 2708SOL    HW2 8749   1.728   4.273   4.311  0.4187 -0.1454  1.5058
 2709SOL     OW 8750   3.032   4.332   0.290  0.0337 -0.2034  0.0022
 2709SOL    HW1 8751   2.981   4.281   0.359 -0.7900  0.2999 -0.2237
 2709SOL    HW2 8752   3.046   4.426   0.321 -0.0311 -0.0714 -0.3644
 2710SOL     OW 8753   4.899   3.982   1.688 -0.0894 -0.0733  0.6333
 2710SOL    HW1 8754   4.856   4.016   1.604 -1.4812 -1.3954  0.7617
 2710SOL    HW2 8755   4.828   3.956   1.754  0.9672 -0.2250  1.7494
 2711SOL     OW 8756   2.052   3.968   1.193  0.0845 -0.0759 -0.5777
 2711SOL    HW1 8757   1.978   3.954   1.128 -1.9739 -0.5323  1.6943
 2711SOL    HW2 8758   2.106   3.884   1.200 -1.5656 -1.1177  0.4318
 2712SOL     OW 8759   1.603   3.281   2.571 -0.1512  0.4859  0.4792
 2712SOL    HW1 8760   1.655   3.357   2.610  2.2663 -0.0916 -1.3650
 2712SOL    HW2 8761   1.665   3.206   2.547 -1.9692 -0.6550 -0.9801
 2713SOL     OW 8762   3.389   4.733   0.061 -0.6162 -0.1862 -0.2494
 2713SOL    HW1 8763   3.327   4.774  -0.006 -0.9594  1.5146  1.0246
 2713SOL    HW2 8764   3.368   4.636   0.071 -0.2794 -0.6023 -2.8543
 2714SOL     OW 8765   2.973   2.486   0.594 -0.4021  0.4509 -0.0170
 2714SOL    HW1 8766   2.999   2.473   0.690  0.5584 -0.5591 -0.3917
 2714SOL    HW2 8767   2.874   2.476   0.584 -0.6795  1.8594  1.0586
 2715SOL     OW 8768   4.515   3.381   4.241 -0.0944  0.0866  0.1741
 2715SOL    HW1 8769   4.592   3.348   4.296 -0.1376  0.5617  0.5279
 2715SOL    HW2 8770   4.449   3.307   4.228  0.2596 -0.2280  0.1583
 2716SOL     OW 8771   0.405   3.012   4.220  0.4183 -0.1758 -0.2161
 2716SOL    HW1 8772   0.388   2.993   4.124  1.3100  1.8644 -0.8335
 2716SOL    HW2 8773   0.424   3.110   4.232  1.1486 -0.5216  1.9099
 2717SOL     OW 8774   1.763   2.896   1.600  0.3552 -0.2325 -0.4499
 2717SOL    HW1 8775   1.726   2.803   1.604  0.3249 -0.1959  0.3003
 2717SOL    HW2 8776   1.857   2.896   1.636  0.8192 -0.1851 -1.6097
 2718SOL     OW 8777   3.560   3.732   4.251 -0.7830 -0.0899 -0.4953
 2718SOL    HW1 8778   3.648   3.737   4.204 -0.0273  0.9152  0.9525
 2718SOL    HW2 8779   3.571   3.685   4.338 -2.0282 -1.3460 -0.9658
 2719SOL     OW 8780   4.797   0.008   1.010  0.6960 -0.1056  0.3218
 2719SOL    HW1 8781   4.755   0.070   1.076 -0.1380 -1.8846  1.5349
 2719SOL    HW2 8782   4.728  -0.024   0.946  0.8175 -0.8219  0.5417
 2720SOL     OW 8783   3.483   3.041   3.071  0.2587 -0.5426  0.4591
 2720SOL    HW1 8784   3.560   2.978   3.058 -1.1014 -2.2512  0.2809
 2720SOL    HW2 8785   3.444   3.066   2.982 -0.9131 -1.7018  0.6195
 2721SOL     OW 8786   2.515   4.387   3.185 -0.2761  0.6282 -0.2086
 2721SOL    HW1 8787   2.445   4.436   3.134 -0.2149 -0.8955 -1.8759
 2721SOL    HW2 8788   2.524   4.426   3.277 -3.4131  0.7731  0.1273
 2722SOL     OW 8789   4.539   3.365   1.532 -0.7633 -0.0171  0.3957
 2722SOL    HW1 8790   4.555   3.330   1.440  0.3070  1.0664  0.1425
 2722SOL    HW2 8791   4.566   3.296   1.600 -1.6549 -0.8587 -0.0832
 2723SOL     OW 8792   0.172   0.030   0.865  0.1081 -0.3856 -0.0483
 2723SOL    HW1 8793   0.146   0.060   0.773  0.8334  2.5039  0.5905
 2723SOL    HW2 8794   0.092   0.030   0.924 -0.0985 -0.7737 -0.3264
 2724SOL     OW 8795   2.830   0.863   3.179 -0.4023 -0.9885  0.2045
 2724SOL    HW1 8796   2.746   0.840   3.229  0.0736  1.5322  2.3857
 2724SOL    HW2 8797   2.908   0.858   3.241  0.6967 -0.6319 -1.0926
 2725SOL     OW 8798   2.046   1.607   0.937 -0.9109  0.4106 -0.9013
 2725SOL    HW1 8799   1.993   1.523   0.945 -2.0304  1.0690 -1.1480
 2725SOL    HW2 8800   1.986   1.686   0.954  0.3094  1.1347  0.2468
 2726SOL     OW 8801   0.081   2.464   1.895  0.1532 -0.0468  0.0015
 2726SOL    HW1 8802   0.132   2.475   1.981 -1.3825  0.3319  0.8879
 2726SOL    HW2 8803   0.040   2.551   1.869 -2.0013 -0.8229  0.5907
 2727SOL     OW 8804   2.142   2.903   0.735 -0.1591  0.3342  0.7835
 2727SOL    HW1 8805   2.101   2.931   0.648 -0.0412  0.1191  0.6595
 2727SOL    HW2 8806   2.197   2.821   0.722  0.7917  0.9501  0.8390
 2728SOL     OW 8807   3.890   3.030   0.938 -0.4448  0.1972 -0.2784
 2728SOL    HW1 8808   3.861   3.099   1.004 -0.8569  0.7534 -1.0271
 2728SOL    HW2 8809   3.933   2.954   0.986  0.4446  1.1781  0.5445
 2729SOL     OW 8810   2.851   2.448   1.581  0.1578 -0.0756 -0.1364
 2729SOL    HW1 8811   2.822   2.378   1.646  1.8389 -0.3855  0.3385
 2729SOL    HW2 8812   2.864   2.406   1.491  1.6819 -0.5379  0.2685
 2730SOL     OW 8813   1.064   3.257   1.292  0.0347  0.1724  0.2932
 2730SOL    HW1 8814   1.089   3.286   1.199 -1.0638  3.6137  0.9233
 2730SOL    HW2 8815   1.142   3.270   1.353  0.1236 -0.0384  0.2235
 2731SOL     OW 8816   1.542   2.011   2.493  0.1822  0.0511  0.2736
 2731SOL    HW1 8817   1.521   2.002   2.396 -3.5538  0.2580  0.9053
 2731SOL    HW2 8818   1.552   1.920   2.533 -0.7231 -0.1598  0.0664
 2732SOL     OW 8819   3.584   0.141   0.422  0.0642 -0.0854 -0.5188
 2732SOL    HW1 8820   3.665   0.096   0.459  0.0534  0.4447  0.1575
 2732SOL    HW2 8821   3.583   0.237   0.450 -1.4471 -0.3790  0.5639
 2733SOL     OW 8822   4.503   2.361   2.165 -0.1278  0.1592 -0.1916
 2733SOL    HW1 8823   4.602   2.369   2.150  0.0926 -2.1894 -0.4640
 2733SOL    HW2 8824   4.455   2.432   2.113  1.2780 -0.6892 -2.8423
 2734SOL     OW 8825   4.587   4.216   0.773 -0.3266  0.1461 -0.2229
 2734SOL    HW1 8826   4.551   4.147   0.710  1.5409  0.5716 -1.8814
 2734SOL    HW2 8827   4.667   4.260   0.731  0.9093  0.5879  2.4195
 2735SOL     OW 8828   1.589   3.714   0.879  0.0737  0.5093  0.7558
 2735SOL    HW1 8829   1.589   3.624   0.837 -0.6407  0.6464  0.4407
 2735SOL    HW2 8830   1.670   3.725   0.936  1.4983  0.5902 -1.1761
 2736SOL     OW 8831   1.669   4.768   2.932 -0.2714  0.2690  0.2130
 2736SOL    HW1 8832   1.762   4.772   2.969 -0.2548  0.3603  0.1627
 2736SOL    HW2 8833   1.668   4.713   2.849 -0.2211  0.4447  0.0945
 2737SOL     OW 8834   3.168   4.527   1.573  0.0393  0.0699 -0.2240
 2737SOL    HW1 8835   3.087   4.554   1.625  0.8670  0.0829  1.0802
 2737SOL    HW2 8836   3.216   4.453   1.620  1.7743  1.2608 -0.0218
 2738SOL     OW 8837   3.074   4.328   2.129 -0.4295 -0.1458 -0.2075
 2738SOL    HW1 8838   3.170   4.302   2.138 -0.2084 -0.4312 -2.5844
 2738SOL    HW2 8839   3.016   4.247   2.139 -0.2750 -0.2949 -0.5026
 2739SOL     OW 8840   4.608   4.225   2.309 -0.3194 -0.0225 -0.3354
 2739SOL    HW1 8841   4.586   4.178   2.224 -2.1661  0.1184  0.0226
 2739SOL    HW2 8842   4.613   4.324   2.292 -1.1442  0.0471 -0.2128
 2740SOL     OW 8843   4.644   2.564   4.182  0.3561 -0.1010  0.2994
 2740SOL    HW1 8844   4.549   2.556   4.152  0.8323 -0.0393 -1.2866
 2740SOL    HW2 8845   4.691   2.477   4.167  1.1376  0.5336 -1.1310
 2741SOL     OW 8846   2.413   4.786   0.259  0.1497 -0.4463  0.6516
 2741SOL    HW1 8847   2.394   4.868   0.204  1.1819 -0.6182  0.0179
 2741SOL    HW2 8848   2.327   4.738   0.277 -0.1679 -0.7272 -1.3854
 2742SOL     OW 8849   3.025   3.996   2.456 -0.0936  0.2830 -0.0447
 2742SOL    HW1 8850   3.012   3.923   2.524 -2.0553  0.6315  0.0284
 2742SOL    HW2 8851   3.002   4.084   2.497  1.3260  0.8460 -0.4132
 2743SOL     OW 8852   0.403   4.535   0.375  0.5689 -0.3351 -0.4321
 2743SOL    HW1 8853   0.330   4.477   0.339  1.0573 -0.4343 -1.3058
 2743SOL    HW2 8854   0.462   4.565   0.299  0.9127  0.4731  0.1403
 2744SOL     OW 8855   4.289   0.552   3.556 -0.1834  0.3702 -0.0435
 2744SOL    HW1 8856   4.332   0.591   3.637  1.0131 -0.1902 -0.3839
 2744SOL    HW2 8857   4.194   0.529   3.576  0.3933 -0.7588  1.5273
 2745SOL     OW 8858   4.823   4.568   4.288 -0.0993 -0.0733  0.1422
 2745SOL    HW1 8859   4.816   4.468   4.289  0.2935 -0.1013  0.6392
 2745SOL    HW2 8860   4.734   4.608   4.269  0.0185 -0.5434 -1.5405
 2746SOL     OW 8861   2.976   1.986   4.345 -0.0322 -0.1628  0.2043
 2746SOL    HW1 8862   2.937   2.029   4.426 -0.0800  0.5058 -0.1625
 2746SOL    HW2 8863   2.904   1.940   4.294  0.1682 -1.4648  1.0660
 2747SOL     OW 8864   0.431   0.014   2.418 -0.1883 -0.1363 -0.1343
 2747SOL    HW1 8865   0.383   0.067   2.349  0.4118  0.8574  0.1907
 2747SOL    HW2 8866   0.431  -0.083   2.391 -1.3261  0.0033 -0.7144
 2748SOL     OW 8867   3.367   0.517   1.267  0.3582  0.2528 -0.0317
 2748SOL    HW1 8868   3.301   0.494   1.196  0.5688  0.2845 -0.2380
 2748SOL    HW2 8869   3.341   0.472   1.353 -0.8831  1.6182  0.3476
 2749SOL     OW 8870   2.333   3.264   0.294 -0.1455  0.1217 -0.0043
 2749SOL    HW1 8871   2.299   3.253   0.201 -0.3319  0.0864  0.0659
 2749SOL    HW2 8872   2.350   3.361   0.312  2.2334 -0.0750 -0.8760
 2750SOL     OW 8873   3.222   0.361   2.483 -0.6867 -0.1030  0.3376
 2750SOL    HW1 8874   3.225   0.411   2.569  0.3690  1.1031 -0.3771
 2750SOL    HW2 8875   3.228   0.425   2.407 -1.8073 -1.1271 -0.6650
 2751SOL     OW 8876   2.101   0.836   3.376  0.4980  0.1105 -0.1004
 2751SOL    HW1 8877   2.023   0.895   3.354 -1.2140 -0.7274  3.0654
 2751SOL    HW2 8878   2.154   0.878   3.450  0.8978 -1.0042  0.2586
 2752SOL     OW 8879   0.361   1.866   3.674 -0.4788  0.3654 -0.2468
 2752SOL    HW1 8880   0.386   1.770   3.660 -0.2694  0.4003 -0.1279
 2752SOL    HW2 8881   0.430   1.924   3.630  0.3135  0.4807  1.1019
 2753SOL     OW 8882   1.059   2.355   2.592  0.3952 -0.0509 -0.4222
 2753SOL    HW1 8883   1.052   2.446   2.633  0.3798 -0.6125  0.8625
 2753SOL    HW2 8884   1.096   2.291   2.659  0.8431 -0.9070 -1.4548
 2754SOL     OW 8885   4.496   4.027   3.583  0.0839 -0.4593  0.3208
 2754SOL    HW1 8886   4.510   4.089   3.660 -0.9265  0.9116 -0.5517
 2754SOL    HW2 8887   4.583   4.016   3.534 -0.1158  2.0568 -0.7672
 2755SOL     OW 8888   1.373   0.636   3.219  0.2421  0.1002 -0.0530
 2755SOL    HW1 8889   1.458   0.644   3.167  1.7009 -0.9341  2.0532
 2755SOL    HW2 8890   1.374   0.702   3.295 -0.8154  0.0177  0.0515
 2756SOL     OW 8891   0.702   4.857   1.702 -0.3890  0.0110 -0.3641
 2756SOL    HW1 8892   0.656   4.773   1.730 -0.6914 -0.1274 -1.2561
 2756SOL    HW2 8893   0.659   4.935   1.747 -0.9186 -0.1983 -0.5031
 2757SOL     OW 8894   1.595   0.643   3.057 -0.0673 -0.5921  0.3066
 2757SOL    HW1 8895   1.583   0.740   3.038 -0.5204 -0.6274  0.4101
 2757SOL    HW2 8896   1.630   0.597   2.975  2.0634 -0.0074  0.8237
 2758SOL     OW 8897   1.530   1.436   1.880 -0.3127  0.3589  0.2017
 2758SOL    HW1 8898   1.548   1.383   1.797  1.4621 -1.0297  1.3705
 2758SOL    HW2 8899   1.616   1.471   1.916 -0.6611 -1.1071  2.6924
 2759SOL     OW 8900   3.113   3.576   0.216  0.2689  0.7140 -0.3686
 2759SOL    HW1 8901   3.200   3.625   0.221 -0.0743  1.3475 -0.4750
 2759SOL    HW2 8902   3.054   3.619   0.147  0.6471 -0.9737 -1.8035
 2760SOL     OW 8903   2.247   0.665   0.656 -0.0476  0.3455  0.6147
 2760SOL    HW1 8904   2.163   0.610   0.662  1.1604 -1.6070  0.2831
 2760SOL    HW2 8905   2.251   0.709   0.567  0.1453 -1.0511 -0.0886
 2761SOL     OW 8906   3.966   1.859   3.578 -0.1109 -0.4866  0.0061
 2761SOL    HW1 8907   4.011   1.877   3.666  0.8954 -1.2620 -0.3285
 2761SOL    HW2 8908   4.021   1.794   3.526 -0.3894  0.4421 -1.4743
 2762SOL     OW 8909   1.676   4.208   2.013  0.3493 -0.1805  0.4565
 2762SOL    HW1 8910   1.608   4.198   2.086  1.4678  1.9283  1.8636
 2762SOL    HW2 8911   1.634   4.181   1.926 -1.6697 -0.7890  1.5429
 2763SOL     OW 8912   2.882   1.126   3.110  0.7368  0.2726  0.0159
 2763SOL    HW1 8913   2.862   1.031   3.132 -0.0047 -0.0468 -1.8795
 2763SOL    HW2 8914   2.908   1.175   3.194 -2.8290 -0.5575  1.8080
 2764SOL     OW 8915   1.545   0.718   4.174  0.0434  0.4335 -0.1202
 2764SOL    HW1 8916   1.608   0.775   4.226  1.1046 -1.7173  1.0567
 2764SOL    HW2 8917   1.595   0.669   4.103 -0.2721 -1.1609  0.7088
 2765SOL     OW 8918   0.298   3.421   2.045 -0.1843  0.1222 -0.2844
 2765SOL    HW1 8919   0.388   3.465   2.046 -0.5964  1.0251 -1.1163
 2765SOL    HW2 8920   0.289   3.361   2.124  0.5784  1.1831  0.6267
 2766SOL     OW 8921   1.369   4.610   1.466 -0.0689 -0.4273  0.5474
 2766SOL    HW1 8922   1.398   4.658   1.549 -2.4057  1.1883  0.5374
 2766SOL    HW2 8923   1.274   4.580   1.476 -0.2474 -0.6551 -1.3673
 2767SOL     OW 8924   0.950   4.793   3.011  0.0712  0.7897  0.9019
 2767SOL    HW1 8925   1.018   4.726   2.982 -1.4465 -1.1925  1.6686
 2767SOL    HW2 8926   0.971   4.824   3.104 -0.5787 -0.6227  1.5551
 2768SOL     OW 8927   1.390   1.430   2.127 -0.4946  0.5953  0.0127
 2768SOL    HW1 8928   1.314   1.367   2.140 -0.3190  0.1575 -0.9858
 2768SOL    HW2 8929   1.417   1.431   2.030 -0.3260  2.0122  0.0493
 2769SOL     OW 8930   1.325   1.383   4.391  0.7507  0.2228 -0.2860
 2769SOL    HW1 8931   1.258   1.386   4.317 -0.3270  0.3279  0.6489
 2769SOL    HW2 8932   1.281   1.345   4.473  1.1266  2.4435  1.0225
 2770SOL     OW 8933   3.006   4.004   1.219 -0.0643 -1.1031 -0.4187
 2770SOL    HW1 8934   3.039   4.039   1.306  0.1661 -1.6390 -0.2876
 2770SOL    HW2 8935   2.906   4.007   1.218 -0.2156 -3.3031  0.8458
 2771SOL     OW 8936   3.352   3.331   4.862  0.2110  0.1754 -0.0316
 2771SOL    HW1 8937   3.268   3.281   4.883  0.5990 -0.8801 -0.8486
 2771SOL    HW2 8938   3.332   3.428   4.850 -0.7280  0.0776  0.6952
 2772SOL     OW 8939   2.853   0.538   0.930 -0.5976  0.4173  0.5391
 2772SOL    HW1 8940   2.771   0.550   0.985 -0.0698  0.4731  1.3399
 2772SOL    HW2 8941   2.829   0.501   0.841 -1.4986  0.5379  0.7265
 2773SOL     OW 8942   3.327   1.545   4.305 -0.0058  0.1234 -0.3789
 2773SOL    HW1 8943   3.228   1.561   4.310 -0.1975  0.4301 -3.1943
 2773SOL    HW2 8944   3.358   1.501   4.389 -1.9845  2.5353  1.7798
 2774SOL     OW 8945   3.358   0.309   2.086  0.5987 -0.0590 -0.2893
 2774SOL    HW1 8946   3.332   0.391   2.137 -1.3634 -0.8729  0.1395
 2774SOL    HW2 8947   3.304   0.304   2.002  0.1997 -1.2238  0.0159
 2775SOL     OW 8948   3.303   2.559   3.974  0.3096  0.7286  0.4545
 2775SOL    HW1 8949   3.309   2.484   4.041 -1.8936  1.8467  2.0545
 2775SOL    HW2 8950   3.348   2.640   4.011 -0.7026  1.2812  0.5221
 2776SOL     OW 8951   4.184   3.296   3.963 -0.1410 -0.3894  0.6978
 2776SOL    HW1 8952   4.281   3.276   3.953  0.2474  1.6168 -0.1267
 2776SOL    HW2 8953   4.148   3.248   4.043  2.7833  2.6693  4.2739
 2777SOL     OW 8954   2.060   1.414   3.671  0.3068  0.0741  0.4046
 2777SOL    HW1 8955   2.056   1.512   3.650 -1.0639  0.5852  2.6905
 2777SOL    HW2 8956   2.124   1.399   3.746  0.0633 -0.6933  0.4596
 2778SOL     OW 8957   1.299   4.313   1.444  0.0320 -0.0093  0.2007
 2778SOL    HW1 8958   1.214   4.358   1.471 -1.0903 -1.8354 -0.1547
 2778SOL    HW2 8959   1.342   4.365   1.370 -2.2858 -0.5178 -1.6268
 2779SOL     OW 8960   0.806   2.754   4.868 -0.1996 -0.5450 -0.1837
 2779SOL    HW1 8961   0.822   2.705   4.782  0.3176 -0.1955 -0.2905
 2779SOL    HW2 8962   0.866   2.833   4.873  0.5942 -1.1900  1.0203
 2780SOL     OW 8963   3.877   0.654   1.835 -0.6629 -0.4737 -0.0939
 2780SOL    HW1 8964   3.940   0.725   1.864  0.3046 -1.2227 -0.2865
 2780SOL    HW2 8965   3.911   0.611   1.751 -1.8947 -0.3015 -0.7091
 2781SOL     OW 8966   2.222   0.002   3.493 -0.1861  0.2402 -0.3546
 2781SOL    HW1 8967   2.269  -0.051   3.564 -0.4619  1.0493  0.4492
 2781SOL    HW2 8968   2.270  -0.010   3.406  1.1938  0.6077  0.3239
 2782SOL     OW 8969   3.232   2.303   3.698  0.4115  0.2554 -0.2349
 2782SOL    HW1 8970   3.210   2.395   3.665  0.8847  1.2261  1.9929
 2782SOL    HW2 8971   3.298   2.309   3.772  1.3415 -2.0004 -0.8028
 2783SOL     OW 8972   0.671   2.678   1.710 -0.0593  0.7507 -0.5284
 2783SOL    HW1 8973   0.733   2.669   1.788  1.8385  0.7641 -1.9836
 2783SOL    HW2 8974   0.596   2.612   1.720 -0.5798  1.5890  1.8851
 2784SOL     OW 8975   1.431   2.865   2.599 -0.2165  0.0855  0.0736
 2784SOL    HW1 8976   1.359   2.797   2.612 -0.4198 -0.4679 -3.2213
 2784SOL    HW2 8977   1.520   2.821   2.605 -0.3343 -0.4051 -1.4780
 2785SOL     OW 8978   4.361   4.678   3.628  0.3841 -0.0411 -0.3973
 2785SOL    HW1 8979   4.304   4.725   3.560  1.0663  1.2429 -0.1175
 2785SOL    HW2 8980   4.407   4.600   3.586 -0.6181 -0.3537 -0.9305
 2786SOL     OW 8981   2.818   2.126   2.201  0.3162  0.0173  0.2143
 2786SOL    HW1 8982   2.789   2.205   2.256  0.6616 -0.0102  0.4313
 2786SOL    HW2 8983   2.913   2.139   2.172  0.0625  0.1531 -0.5837
 2787SOL     OW 8984   3.186   4.014   0.861 -0.2197  0.0253  0.3620
 2787SOL    HW1 8985   3.089   4.030   0.881 -0.6247  0.1901 -1.5694
 2787SOL    HW2 8986   3.199   4.007   0.762  1.3452 -2.5593  0.6610
 2788SOL     OW 8987   3.385   1.416   2.423 -0.3356  0.1821  0.4197
 2788SOL    HW1 8988   3.422   1.470   2.347 -0.9671  2.5263  1.6902
 2788SOL    HW2 8989   3.433   1.440   2.507 -3.0544  1.5672  1.6811
 2789SOL     OW 8990   3.825   0.003   4.391  0.2798 -0.6752  0.2351
 2789SOL    HW1 8991   3.915   0.037   4.418  0.1348  0.3442 -0.5349
 2789SOL    HW2 8992   3.803   0.034   4.299 -2.3819  2.2178  1.6430
 2790SOL     OW 8993   3.510   2.363   4.592 -0.4742 -1.1144  0.2586
 2790SOL    HW1 8994   3.419   2.405   4.585  0.1082  0.0731 -0.4660
 2790SOL    HW2 8995   3.513   2.302   4.672 -1.4801 -0.1203  1.0835
 2791SOL     OW 8996   2.596   1.985   3.110  0.5422  0.3354 -0.4863
 2791SOL    HW1 8997   2.594   1.885   3.105  2.8314  0.1710  0.5346
 2791SOL    HW2 8998   2.548   2.014   3.193  0.4436  0.0394 -0.4358
 2792SOL     OW 8999   1.700   1.515   4.239  0.4371 -0.5462  0.3163
 2792SOL    HW1 9000   1.673   1.598   4.190 -0.1360  0.3026  1.9856
 2792SOL    HW2 9001   1.644   1.505   4.321  0.2580 -2.8139 -0.0237
 2793SOL     OW 9002   3.698   1.443   2.215 -0.2391  0.7258 -0.0892
 2793SOL    HW1 9003   3.718   1.409   2.307 -2.2014  1.8982  0.8388
 2793SOL    HW2 9004   3.617   1.502   2.218 -1.0812 -0.1370 -2.7708
 2794SOL     OW 9005   0.932   1.238   4.657  0.1028 -0.8348 -0.7818
 2794SOL    HW1 9006   0.960   1.315   4.600 -2.0811  1.5572  1.1663
 2794SOL    HW2 9007   0.842   1.206   4.629  0.7787 -2.4247 -1.2475
 2795SOL     OW 9008   0.145   2.509   0.966 -0.7095  0.2398 -0.1206
 2795SOL    HW1 9009   0.048   2.511   0.942 -0.5184 -0.8873 -1.1145
 2795SOL    HW2 9010   0.194   2.452   0.900  0.6119  0.6894  0.4398
 2796SOL     OW 9011   1.859   4.250   4.723 -0.5229 -0.4083 -0.0156
 2796SOL    HW1 9012   1.839   4.314   4.648 -0.3943  0.8303  0.9712
 2796SOL    HW2 9013   1.827   4.289   4.810 -0.1484 -1.5574  0.6670
 2797SOL     OW 9014   0.129   0.488   3.588 -0.1708  0.1274  0.8249
 2797SOL    HW1 9015   0.140   0.437   3.674 -0.0814 -1.6318 -0.1756
 2797SOL    HW2 9016   0.217   0.529   3.563  0.0251 -0.1040  1.1152
 2798SOL     OW 9017   2.664   2.495   3.745  0.1553 -0.6563  0.2387
 2798SOL    HW1 9018   2.577   2.485   3.794 -1.2550 -0.3099 -2.0515
 2798SOL    HW2 9019   2.718   2.567   3.789 -0.1961 -1.6056  2.3538
 2799SOL     OW 9020   1.347   4.455   2.899  0.2650  0.2144  0.9139
 2799SOL    HW1 9021   1.305   4.383   2.955  0.8336 -0.5048  0.4409
 2799SOL    HW2 9022   1.414   4.414   2.838 -0.9957  0.8601 -0.9661
 2800SOL     OW 9023   2.563   1.532   0.203 -0.1930  0.0201 -0.1632
 2800SOL    HW1 9024   2.475   1.501   0.238  1.0405 -0.7597  2.4950
 2800SOL    HW2 9025   2.578   1.628   0.227 -0.1337  0.0317 -0.2431
 2801SOL     OW 9026   4.536   0.569   3.427  0.0575  0.3073  0.0045
 2801SOL    HW1 9027   4.556   0.665   3.408 -0.4955  0.2643 -0.8025
 2801SOL    HW2 9028   4.441   0.560   3.456  0.4925  0.1843  1.5048
 2802SOL     OW 9029   3.971   3.505   2.344  0.2158  0.1988  0.2694
 2802SOL    HW1 9030   3.953   3.436   2.274 -2.4413 -0.1800  1.2268
 2802SOL    HW2 9031   3.977   3.595   2.301 -1.1035 -0.0652 -0.5268
 2803SOL     OW 9032   4.452   2.755   2.586 -0.0289  0.2724  0.2675
 2803SOL    HW1 9033   4.355   2.744   2.564 -0.0608  2.2952 -0.8509
 2803SOL    HW2 9034   4.506   2.741   2.504  0.5525  0.2172  0.6565
 2804SOL     OW 9035   3.792   1.089   0.217 -0.0475 -0.1137  0.3802
 2804SOL    HW1 9036   3.810   1.024   0.143 -1.0040  0.1565 -0.1166
 2804SOL    HW2 9037   3.739   1.043   0.289  0.4243 -0.2368  0.6475
 2805SOL     OW 9038   3.428   4.268   4.455  0.5312 -0.1958 -0.3564
 2805SOL    HW1 9039   3.505   4.207   4.441  3.0035  2.7519 -0.7868
 2805SOL    HW2 9040   3.420   4.330   4.376 -2.9808 -0.9749 -0.7824
 2806SOL     OW 9041   4.074   3.804   3.814  0.0307 -0.0778 -0.6906
 2806SOL    HW1 9042   4.117   3.888   3.784 -0.2012 -0.1150 -1.1283
 2806SOL    HW2 9043   3.974   3.812   3.807 -0.1182  0.3934  1.3072
 2807SOL     OW 9044   4.368   1.184   1.102 -0.1855  0.0655  0.5140
 2807SOL    HW1 9045   4.448   1.230   1.140 -0.1355  1.2844 -0.9897
 2807SOL    HW2 9046   4.393   1.140   1.015 -1.4922  1.9447 -0.8854
 2808SOL     OW 9047   0.242   4.803   3.792  0.7381  0.4555 -0.4979
 2808SOL    HW1 9048   0.307   4.850   3.732  0.5831 -0.4764 -1.4214
 2808SOL    HW2 9049   0.248   4.704   3.778  0.3910  0.2371  0.7231
 2809SOL     OW 9050   3.774   4.003   0.476  0.0258  0.3593 -0.2491
 2809SOL    HW1 9051   3.738   4.089   0.513 -0.1493  0.0538  0.3089
 2809SOL    HW2 9052   3.871   4.014   0.453  0.3688  0.3383  1.0862
 2810SOL     OW 9053   2.596   3.363   3.527  0.3725  0.1398  0.2019
 2810SOL    HW1 9054   2.555   3.344   3.438  1.3941 -0.4476 -0.1585
 2810SOL    HW2 9055   2.686   3.319   3.532 -0.8178 -2.2979  2.5938
 2811SOL     OW 9056   4.799   4.683   3.656 -0.2481 -0.1056 -0.1862
 2811SOL    HW1 9057   4.709   4.654   3.687 -0.0148 -0.3817  0.2332
 2811SOL    HW2 9058   4.845   4.733   3.729 -0.3728  0.7247 -0.6682
 2812SOL     OW 9059   3.416   1.861   4.055 -0.4779 -0.0169  0.6250
 2812SOL    HW1 9060   3.386   1.766   4.047  0.1690 -0.3953  2.3337
 2812SOL    HW2 9061   3.341   1.917   4.092 -0.2748 -0.2196  1.3407
 2813SOL     OW 9062   2.864   4.552   4.836  0.3190 -0.1168  0.1766
 2813SOL    HW1 9063   2.911   4.551   4.748 -0.8779  0.2836 -0.4838
 2813SOL    HW2 9064   2.931   4.563   4.909  1.2571  0.3128 -0.7286
 2814SOL     OW 9065   0.730   4.011   0.554  0.4185 -0.2914 -0.4774
 2814SOL    HW1 9066   0.804   3.990   0.619  0.1830 -1.7121 -0.6382
 2814SOL    HW2 9067   0.653   4.051   0.603  2.1226  3.6550 -0.6058
 2815SOL     OW 9068   3.674   1.348   0.267 -0.4923 -0.1152 -0.3554
 2815SOL    HW1 9069   3.709   1.258   0.294 -1.1885 -0.9203 -2.0431
 2815SOL    HW2 9070   3.665   1.353   0.168  1.0587  2.4147 -0.4539
 2816SOL     OW 9071   1.269   0.850   1.554 -0.2857 -0.0023  0.0503
 2816SOL    HW1 9072   1.176   0.851   1.591  0.5595  3.5514  2.7170
 2816SOL    HW2 9073   1.274   0.914   1.477  0.0900  0.5521  0.5245
 2817SOL     OW 9074   4.076   0.385   4.619  0.7015  0.0922 -0.6307
 2817SOL    HW1 9075   4.013   0.333   4.562  0.7360 -0.1202 -0.4750
 2817SOL    HW2 9076   4.049   0.376   4.715  1.3144 -0.4688 -0.5128
 2818SOL     OW 9077   2.833   4.704   0.471  0.0212  0.2608  0.1125
 2818SOL    HW1 9078   2.895   4.780   0.493 -0.4442  0.9814 -1.0121
 2818SOL    HW2 9079   2.740   4.739   0.464 -0.0432 -0.2041 -1.5519
 2819SOL     OW 9080   3.508   0.622   3.280 -0.0573 -0.2643  0.0794
 2819SOL    HW1 9081   3.551   0.560   3.215 -0.0439  0.3920 -0.5453
 2819SOL    HW2 9082   3.504   0.578   3.370 -1.6457 -1.9004 -0.7173
 2820SOL     OW 9083   1.481   0.324   1.616 -0.4506  0.0663 -0.0786
 2820SOL    HW1 9084   1.447   0.417   1.601  0.8485  0.9025  1.7728
 2820SOL    HW2 9085   1.520   0.289   1.531 -0.5887  1.3742 -0.7161
 2821SOL     OW 9086   0.735   4.474   4.005 -0.4442 -0.7402 -0.0564
 2821SOL    HW1 9087   0.813   4.511   4.054 -1.0369  2.2231 -1.1600
 2821SOL    HW2 9088   0.654   4.474   4.064 -0.3758 -0.5567  0.0351
 2822SOL     OW 9089   2.997   1.588   3.308  0.8665  0.8096  0.3931
 2822SOL    HW1 9090   2.961   1.634   3.227  1.7251 -0.6678 -0.8784
 2822SOL    HW2 9091   3.094   1.570   3.296  1.0340  0.6465  1.8104
 2823SOL     OW 9092   2.206   3.956   4.574  0.0725 -0.1381 -0.0336
 2823SOL    HW1 9093   2.239   3.973   4.481  1.1756  2.7038  0.7682
 2823SOL    HW2 9094   2.275   3.984   4.640 -1.9632  1.2051  1.6714
 2824SOL     OW 9095   1.525   2.536   2.665 -0.2285 -0.4170 -0.1225
 2824SOL    HW1 9096   1.473   2.570   2.744 -2.2999  0.7574 -1.8992
 2824SOL    HW2 9097   1.596   2.603   2.641  0.7488 -1.0087  0.9722
 2825SOL     OW 9098   3.776   0.683   1.398  0.5413  0.0257 -0.0305
 2825SOL    HW1 9099   3.689   0.671   1.351  0.4079 -0.1479  0.2592
 2825SOL    HW2 9100   3.844   0.622   1.357  0.3736 -0.2760  0.1355
 2826SOL     OW 9101   2.436   0.015   2.665  0.6072  0.6816 -0.2606
 2826SOL    HW1 9102   2.401   0.102   2.700 -1.3448 -1.0439  2.3853
 2826SOL    HW2 9103   2.414   0.009   2.567  0.7184  3.0867 -0.5086
 2827SOL     OW 9104   0.714   4.892   4.363  0.0403  0.2554  0.3912
 2827SOL    HW1 9105   0.689   4.803   4.326  1.4767 -0.9364  2.0724
 2827SOL    HW2 9106   0.695   4.893   4.461 -0.0319  1.8495  0.3769
 2828SOL     OW 9107   3.098   2.847   1.221  0.4015  0.2968 -1.3998
 2828SOL    HW1 9108   3.089   2.946   1.207  1.3658  0.5253 -0.5477
 2828SOL    HW2 9109   3.058   2.822   1.309  0.1972 -0.0659 -1.5954
 2829SOL     OW 9110   0.765   1.415   0.928 -0.0392 -0.1939 -0.5272
 2829SOL    HW1 9111   0.723   1.325   0.917 -2.6298  0.6643  1.3309
 2829SOL    HW2 9112   0.851   1.405   0.978 -0.9794 -1.5894  0.9506
 2830SOL     OW 9113   4.457   3.743   0.307 -0.4368  0.6100  0.5341
 2830SOL    HW1 9114   4.438   3.838   0.332  0.5528  0.5748  1.5193
 2830SOL    HW2 9115   4.370   3.694   0.294 -1.0058  2.2536 -2.6710
 2831SOL     OW 9116   1.077   1.816   3.531 -0.1638 -0.2791  0.7820
 2831SOL    HW1 9117   1.046   1.904   3.567 -1.0685  0.1328 -0.9044
 2831SOL    HW2 9118   1.115   1.761   3.605  2.0347  2.1576  1.6185
 2832SOL     OW 9119   0.027   2.310   3.787  0.0288 -0.4944 -0.3464
 2832SOL    HW1 9120   0.115   2.356   3.797  0.1556 -0.9543  0.7654
 2832SOL    HW2 9121  -0.008   2.325   3.694 -0.2473  2.3921  0.1016
 2833SOL     OW 9122   3.028   2.166   0.295  0.0690 -0.3426  0.1759
 2833SOL    HW1 9123   3.001   2.126   0.383  0.3494 -0.2684  0.2964
 2833SOL    HW2 9124   3.089   2.243   0.312  0.8710 -0.9024 -0.1209
 2834SOL     OW 9125   4.120   1.027   2.333 -0.6768  0.5961  0.5244
 2834SOL    HW1 9126   4.205   1.043   2.281 -0.2234  1.4483  1.5088
 2834SOL    HW2 9127   4.143   0.985   2.421 -1.0899  2.4834  1.5652
 2835SOL     OW 9128   4.182   4.234   3.840  0.7327  0.1421 -0.5598
 2835SOL    HW1 9129   4.254   4.301   3.822  0.7118  0.5643  0.8714
 2835SOL    HW2 9130   4.118   4.233   3.763  2.1243 -0.0765 -1.7532
 2836SOL     OW 9131   0.486   3.240   3.722 -0.0078  0.1255  0.4983
 2836SOL    HW1 9132   0.512   3.318   3.780 -0.0829  0.7330 -0.2784
 2836SOL    HW2 9133   0.411   3.266   3.662  0.5209 -0.2813 -0.3567
 2837SOL     OW 9134   0.903   4.516   2.254 -0.0348 -0.1979  0.1882
 2837SOL    HW1 9135   0.975   4.450   2.232  0.7999  1.1268 -1.2977
 2837SOL    HW2 9136   0.909   4.541   2.350  0.4245 -1.3240  0.4726
 2838SOL     OW 9137   1.720   3.408   3.270  0.1008 -0.5181  0.0314
 2838SOL    HW1 9138   1.702   3.310   3.268 -0.6143 -0.3819 -1.1961
 2838SOL    HW2 9139   1.711   3.446   3.178  2.4947  0.3511  0.0843
 2839SOL     OW 9140   4.701   0.736   4.779  0.4393  0.5635  0.5429
 2839SOL    HW1 9141   4.717   0.828   4.815  1.7481  0.8268 -0.6327
 2839SOL    HW2 9142   4.735   0.730   4.686  2.1490 -1.6391  1.2072
 2840SOL     OW 9143   0.397   0.088   1.682 -0.1035 -0.4292  0.2021
 2840SOL    HW1 9144   0.400  -0.011   1.664  0.0680 -0.5492  0.8500
 2840SOL    HW2 9145   0.308   0.124   1.655 -1.1334 -1.2503  2.2998
 2841SOL     OW 9146   3.160   0.464   0.204 -0.2891 -0.0901 -0.7222
 2841SOL    HW1 9147   3.203   0.375   0.192 -0.4347 -0.2361 -0.1871
 2841SOL    HW2 9148   3.082   0.472   0.141  0.8828  0.4390 -2.1770
 2842SOL     OW 9149   1.081   1.989   4.144 -0.0403 -0.4074  0.4152
 2842SOL    HW1 9150   1.176   1.956   4.141 -0.0817 -0.4947  0.0628
 2842SOL    HW2 9151   1.056   2.009   4.239 -0.0405 -1.4868  0.6562
 2843SOL     OW 9152   0.198   2.772   4.053 -0.0754  0.3524 -0.3715
 2843SOL    HW1 9153   0.288   2.814   4.040  1.2878 -2.0507  0.5925
 2843SOL    HW2 9154   0.129   2.825   4.004  2.4444 -0.0139 -4.8732
 2844SOL     OW 9155   2.078   2.666   1.696  0.0364  0.4296 -0.7883
 2844SOL    HW1 9156   2.040   2.754   1.725 -1.1164 -0.0272 -0.8621
 2844SOL    HW2 9157   2.173   2.678   1.669  0.2563  1.4342  0.3336
 2845SOL     OW 9158   3.646   3.726   1.500 -0.1011  0.2020 -0.3996
 2845SOL    HW1 9159   3.553   3.707   1.532 -0.9176  0.4381 -2.4892
 2845SOL    HW2 9160   3.681   3.647   1.449  1.6893 -0.6904  2.0003
 2846SOL     OW 9161   2.413   2.311   4.908 -0.3022  0.1220 -0.8106
 2846SOL    HW1 9162   2.411   2.403   4.869  1.6081  0.1731 -0.8693
 2846SOL    HW2 9163   2.353   2.308   4.989  0.1385  1.6149 -0.3993
 2847SOL     OW 9164   2.017   3.606   2.408 -0.2627  0.2993 -0.2011
 2847SOL    HW1 9165   2.022   3.704   2.390 -0.6706  0.4697  0.5367
 2847SOL    HW2 9166   2.029   3.555   2.323 -0.4944  1.0005 -0.6600
 2848SOL     OW 9167   1.178   0.784   0.094 -0.3353 -0.0938 -0.2728
 2848SOL    HW1 9168   1.100   0.721   0.096  0.1296 -0.7027 -0.6892
 2848SOL    HW2 9169   1.259   0.737   0.130  0.1159  0.1166 -0.9899
 2849SOL     OW 9170   3.138   4.875   2.232  0.6688  0.1642 -0.0401
 2849SOL    HW1 9171   3.179   4.958   2.270 -0.4442  1.1775 -0.9555
 2849SOL    HW2 9172   3.052   4.855   2.280 -0.3037  0.9594 -1.3780
 2850SOL     OW 9173   2.891   4.227   4.461  0.0414 -0.0662  0.1984
 2850SOL    HW1 9174   2.991   4.232   4.453  0.1252 -1.8460 -0.4073
 2850SOL    HW2 9175   2.860   4.140   4.424 -1.6240 -0.0912  1.5451
 2851SOL     OW 9176   2.918   1.209   0.750  0.0420  0.3594  0.3235
 2851SOL    HW1 9177   2.988   1.156   0.798 -0.3898  0.4409  1.0493
 2851SOL    HW2 9178   2.919   1.185   0.653  1.9959  1.3167  0.0336
 2852SOL     OW 9179   3.884   0.738   0.549 -0.7089  0.1694 -0.5302
 2852SOL    HW1 9180   3.923   0.709   0.636 -1.0751  0.2577 -0.3355
 2852SOL    HW2 9181   3.958   0.753   0.483 -0.4670 -0.5148 -0.4275
 2853SOL     OW 9182   0.724   3.455   1.780  0.8571  0.6504  0.0914
 2853SOL    HW1 9183   0.813   3.501   1.778  1.1139  0.1407 -1.3530
 2853SOL    HW2 9184   0.738   3.356   1.780  0.2847  0.5643  0.5794
 2854SOL     OW 9185   3.035   4.896   3.629 -0.0384  0.2277  0.2222
 2854SOL    HW1 9186   2.979   4.847   3.696 -1.5527 -0.5473 -1.5180
 2854SOL    HW2 9187   3.065   4.832   3.558  1.4451  1.0424  0.0832
 2855SOL     OW 9188   3.544   2.385   1.573 -0.3675  0.7182 -0.5309
 2855SOL    HW1 9189   3.449   2.417   1.578  0.1523  2.1601  2.8978
 2855SOL    HW2 9190   3.603   2.462   1.546  0.0536  0.4612 -0.3450
 2856SOL     OW 9191   4.809   2.805   3.235 -0.2944  0.1302  0.2878
 2856SOL    HW1 9192   4.770   2.744   3.304 -0.3988  0.4944  0.5523
 2856SOL    HW2 9193   4.908   2.812   3.247  0.0310 -1.5455 -0.9651
 2857SOL     OW 9194   0.483   1.475   0.562  0.0303 -0.0098 -0.7401
 2857SOL    HW1 9195   0.564   1.533   0.560  0.6408 -0.8657 -1.0590
 2857SOL    HW2 9196   0.484   1.419   0.644  0.1265 -0.5357 -1.0979
 2858SOL     OW 9197   1.961   0.900   2.077  0.1489  0.1472 -0.5361
 2858SOL    HW1 9198   1.898   0.967   2.039 -0.2117 -0.4233 -0.9715
 2858SOL    HW2 9199   2.017   0.942   2.148 -1.5280  0.3790  0.6812
 2859SOL     OW 9200   0.504   2.546   2.978 -0.0146  0.0693 -0.0626
 2859SOL    HW1 9201   0.545   2.498   2.900  0.2943  0.5331 -0.1927
 2859SOL    HW2 9202   0.415   2.583   2.951 -0.5613 -0.9863  0.2359
 2860SOL     OW 9203   4.523   0.347   0.916  0.3246  0.6625 -0.3299
 2860SOL    HW1 9204   4.486   0.288   0.988  0.7006 -0.8470 -1.3209
 2860SOL    HW2 9205   4.610   0.310   0.883  0.2650  1.4196 -1.4265
 2861SOL     OW 9206   3.610   3.099   4.272 -0.5933 -0.2567  0.1241
 2861SOL    HW1 9207   3.641   3.134   4.361  0.6973  0.8264 -0.7130
 2861SOL    HW2 9208   3.616   3.171   4.204 -1.8982 -0.9793 -0.8012
 2862SOL     OW 9209   0.521   4.048   3.620 -0.0418 -0.2760 -0.1417
 2862SOL    HW1 9210   0.572   3.981   3.565  0.5871 -0.4432  0.6407
 2862SOL    HW2 9211   0.582   4.092   3.685 -0.6042  0.5665 -0.1648
 2863SOL     OW 9212   4.622   2.831   2.346 -0.1524 -0.5421  0.1853
 2863SOL    HW1 9213   4.694   2.899   2.361 -0.8709  0.3763 -0.4354
 2863SOL    HW2 9214   4.664   2.742   2.329  0.8030 -0.2946  1.0946
 2864SOL     OW 9215   1.343   4.706   0.914 -0.1030 -0.9305  0.6410
 2864SOL    HW1 9216   1.380   4.793   0.882 -0.9248 -0.4688  0.9315
 2864SOL    HW2 9217   1.296   4.660   0.838 -1.8227  0.0421  1.0839
 2865SOL     OW 9218   2.356   1.476   1.407  0.1851 -1.0457 -0.1616
 2865SOL    HW1 9219   2.265   1.444   1.383 -0.2248  0.4490 -0.7485
 2865SOL    HW2 9220   2.424   1.434   1.347 -0.3991 -0.4119 -1.3037
 2866SOL     OW 9221   1.825   2.094   3.324 -0.3627  0.2074  0.0563
 2866SOL    HW1 9222   1.916   2.109   3.364 -0.5781  1.0214  0.2440
 2866SOL    HW2 9223   1.796   2.176   3.275 -1.1040  0.0246  0.1889
 2867SOL     OW 9224   3.768   4.191   3.113  0.2171  0.0831 -0.3259
 2867SOL    HW1 9225   3.703   4.116   3.100  0.5810  0.0315 -2.0106
 2867SOL    HW2 9226   3.751   4.262   3.045 -1.0340  2.2596  2.0594
 2868SOL     OW 9227   3.649   0.359   2.476 -0.2898  0.0885 -0.4223
 2868SOL    HW1 9228   3.602   0.436   2.433  0.5208  0.7082 -0.2396
 2868SOL    HW2 9229   3.740   0.389   2.507  0.7227 -1.3661 -1.8417
 2869SOL     OW 9230   1.470   4.584   4.796 -0.2853  0.3586 -0.2510
 2869SOL    HW1 9231   1.381   4.551   4.765 -1.7251  0.5677  3.1354
 2869SOL    HW2 9232   1.515   4.513   4.850  0.4572  1.0896  0.1243
 2870SOL     OW 9233   4.273   2.732   3.271  0.1000 -0.0418 -0.5715
 2870SOL    HW1 9234   4.299   2.801   3.203  0.6113  0.9783  0.6244
 2870SOL    HW2 9235   4.194   2.681   3.238  0.4942  0.2596 -2.0352
 2871SOL     OW 9236   0.373   4.414   3.259  0.1354  0.0839 -0.6274
 2871SOL    HW1 9237   0.438   4.467   3.204 -0.7440  1.3481 -0.4929
 2871SOL    HW2 9238   0.411   4.398   3.350 -0.8626  3.5442  0.5648
 2872SOL     OW 9239   0.964   4.411   4.572 -0.2943  0.2260 -0.0764
 2872SOL    HW1 9240   0.913   4.342   4.623 -1.4756  0.1094 -1.3397
 2872SOL    HW2 9241   0.957   4.391   4.474  3.7900 -0.8950 -0.3350
 2873SOL     OW 9242   2.306   4.327   4.644 -0.0040  0.6847 -0.2751
 2873SOL    HW1 9243   2.232   4.279   4.692 -1.5522  2.0560 -1.1907
 2873SOL    HW2 9244   2.330   4.410   4.696 -0.5179  1.2840 -0.9741
 2874SOL     OW 9245   0.467   2.255   3.631 -0.0998 -0.0390 -0.0689
 2874SOL    HW1 9246   0.438   2.309   3.710  0.5705  0.3065 -0.0475
 2874SOL    HW2 9247   0.387   2.227   3.578 -0.4939  0.5650  0.1934
 2875SOL     OW 9248   0.535   4.593   3.012  0.3125 -0.5329  0.5275
 2875SOL    HW1 9249   0.610   4.572   3.075 -0.6633 -1.6274  1.3841
 2875SOL    HW2 9250   0.566   4.581   2.918  1.3755 -0.3604  0.8410
 2876SOL     OW 9251   2.979   1.776   0.557  0.0523 -0.0516  0.4658
 2876SOL    HW1 9252   3.040   1.732   0.492 -0.8111  2.2109 -2.0550
 2876SOL    HW2 9253   2.884   1.759   0.530 -0.3144  1.5031  0.6733
 2877SOL     OW 9254   4.308   0.213   4.576  0.0365 -0.4205 -0.3885
 2877SOL    HW1 9255   4.242   0.287   4.589  0.6170  0.1752 -0.7613
 2877SOL    HW2 9256   4.260   0.125   4.578 -0.7955  0.0056 -0.8303
 2878SOL     OW 9257   0.320   4.845   2.032 -0.2661  0.7506 -0.0477
 2878SOL    HW1 9258   0.263   4.783   1.978 -1.7080  1.5246  0.5181
 2878SOL    HW2 9259   0.300   4.832   2.130  0.0894  1.4693  0.1258
 2879SOL     OW 9260   4.377   1.577   0.622 -0.5151  0.3071  0.3591
 2879SOL    HW1 9261   4.294   1.522   0.636 -0.4941  0.2035  0.0957
 2879SOL    HW2 9262   4.417   1.554   0.533  0.7302 -0.8916  1.1701
 2880SOL     OW 9263   1.330   4.086   4.616  0.2591 -0.7681 -0.1254
 2880SOL    HW1 9264   1.378   4.014   4.666  0.9011  0.5427  1.2049
 2880SOL    HW2 9265   1.240   4.100   4.657  1.1857  1.0300  1.4399
 2881SOL     OW 9266   2.826   4.325   4.069 -0.0699  0.2403  0.0203
 2881SOL    HW1 9267   2.846   4.295   4.163 -0.3107 -1.0532 -0.3232
 2881SOL    HW2 9268   2.781   4.251   4.020 -2.9948  2.0170 -0.1601
 2882SOL     OW 9269   4.441   4.635   1.159 -0.3206 -0.3212  0.2181
 2882SOL    HW1 9270   4.521   4.622   1.218 -0.1905  0.0854  0.1343
 2882SOL    HW2 9271   4.448   4.573   1.081  1.5968  1.8936 -1.5313
 2883SOL     OW 9272   1.060   2.518   2.359 -0.7778 -0.4737  0.6391
 2883SOL    HW1 9273   1.031   2.453   2.288 -1.1996  0.9479 -0.5471
 2883SOL    HW2 9274   1.048   2.477   2.449 -0.7701 -2.1264 -0.0847
 2884SOL     OW 9275   2.781   1.005   3.873  0.0279 -0.6325  0.1923
 2884SOL    HW1 9276   2.868   0.982   3.917 -0.1370 -0.8580  0.4063
 2884SOL    HW2 9277   2.783   0.975   3.778  0.8594  0.9759 -0.3316
 2885SOL     OW 9278   1.678   0.034   1.743 -0.1763  0.2914  0.0236
 2885SOL    HW1 9279   1.719  -0.056   1.729  0.7844  0.4870  1.3733
 2885SOL    HW2 9280   1.620   0.057   1.665 -3.5690 -3.1249  1.2412
 2886SOL     OW 9281   3.520   0.445   4.631 -0.3330 -0.0011  0.3180
 2886SOL    HW1 9282   3.480   0.519   4.578 -0.7624 -1.2788 -1.2255
 2886SOL    HW2 9283   3.604   0.414   4.586  0.6076  0.4552  1.7144
 2887SOL     OW 9284   2.406   0.546   2.290 -0.0260  0.1652 -0.0947
 2887SOL    HW1 9285   2.354   0.540   2.205 -1.0923 -0.5639  0.5700
 2887SOL    HW2 9286   2.344   0.570   2.365  0.9135  0.8945  0.4680
 2888SOL     OW 9287   0.542   4.452   4.171 -0.1551  0.2047 -0.9694
 2888SOL    HW1 9288   0.523   4.355   4.185  0.2437  0.4462  1.8564
 2888SOL    HW2 9289   0.467   4.494   4.119 -0.6811 -1.4558 -1.5985
 2889SOL     OW 9290   3.454   3.991   0.002  0.3322  0.0327  0.0610
 2889SOL    HW1 9291   3.485   3.977   0.096  1.5523 -0.6014 -0.4147
 2889SOL    HW2 9292   3.508   3.933  -0.060 -0.5475  0.3351 -1.0147
 2890SOL     OW 9293   2.356   4.792   4.827 -0.0357 -0.3159 -0.0436
 2890SOL    HW1 9294   2.390   4.832   4.912  1.0363 -1.2228 -0.0256
 2890SOL    HW2 9295   2.359   4.692   4.834 -2.0830 -0.4475 -0.3103
 2891SOL     OW 9296   3.650   2.146   1.617  0.8016 -0.0819  0.2621
 2891SOL    HW1 9297   3.745   2.152   1.645  0.2396  0.2119  2.2254
 2891SOL    HW2 9298   3.611   2.238   1.611  1.0731 -0.0583 -2.3191
 2892SOL     OW 9299   1.469   4.420   0.097  0.0753 -0.7028 -0.0870
 2892SOL    HW1 9300   1.372   4.395   0.088 -0.3856  0.9036  0.0735
 2892SOL    HW2 9301   1.483   4.467   0.184  0.6415  0.5477 -0.8229
 2893SOL     OW 9302   4.683   1.929   0.257 -0.1553  0.7287  0.3668
 2893SOL    HW1 9303   4.590   1.901   0.279 -0.7038  2.5177  0.4492
 2893SOL    HW2 9304   4.711   1.887   0.171 -0.9342 -0.0185  0.4680
 2894SOL     OW 9305   1.326   1.106   3.386  0.3726  0.0657  0.6693
 2894SOL    HW1 9306   1.408   1.158   3.362 -0.9438  2.1182  0.4103
 2894SOL    HW2 9307   1.295   1.133   3.477 -0.8237  0.3951  0.1834
 2895SOL     OW 9308   2.889   1.310   3.368  0.3038  0.0776  1.1506
 2895SOL    HW1 9309   2.920   1.405   3.373 -1.0488  0.5132  1.7147
 2895SOL    HW2 9310   2.791   1.307   3.351  0.5555 -1.2587 -0.3338
 2896SOL     OW 9311   2.044   3.613   3.549  0.5648 -0.2026 -0.2373
 2896SOL    HW1 9312   1.970   3.621   3.482  1.6074  0.1978 -1.3790
 2896SOL    HW2 9313   2.057   3.701   3.595 -0.2201 -0.5045  0.6097
 2897SOL     OW 9314   2.229   2.064   4.719  0.3196 -0.1011  0.0199
 2897SOL    HW1 9315   2.232   2.103   4.627 -2.5779 -1.1163 -0.6256
 2897SOL    HW2 9316   2.170   2.121   4.777 -1.3683 -1.7054 -0.0371
 2898SOL     OW 9317   0.781   1.071   4.324  0.7997 -0.1068  0.9518
 2898SOL    HW1 9318   0.805   1.006   4.396  1.1100 -0.6340  0.3819
 2898SOL    HW2 9319   0.699   1.121   4.350  1.5381  0.5108  2.1710
 2899SOL     OW 9320   4.627   2.285   3.599  0.8109 -0.0670  0.4778
 2899SOL    HW1 9321   4.584   2.291   3.689 -1.2144  2.8106 -0.5556
 2899SOL    HW2 9322   4.584   2.211   3.547 -0.9420  0.8908  0.4936
 2900SOL     OW 9323   3.303   0.247   0.125 -0.0799  0.1649 -0.1947
 2900SOL    HW1 9324   3.253   0.248   0.039 -1.0487  1.5685  0.3524
 2900SOL    HW2 9325   3.401   0.241   0.107 -0.2814  0.2181 -1.3801
 2901SOL     OW 9326   4.438   2.664   1.211  0.2981 -0.1426  0.2426
 2901SOL    HW1 9327   4.479   2.722   1.282 -0.7292 -1.6297  2.1682
 2901SOL    HW2 9328   4.358   2.618   1.249  0.7857 -2.4423 -1.3507
 2902SOL     OW 9329   3.883   2.421   3.169  0.1166  0.7535  0.3255
 2902SOL    HW1 9330   3.939   2.339   3.151 -0.4014  0.2625  0.9252
 2902SOL    HW2 9331   3.807   2.424   3.104 -0.4297  0.2169  0.9223
 2903SOL     OW 9332   4.767   2.111   3.425  0.0741 -0.3099  0.7477
 2903SOL    HW1 9333   4.691   2.058   3.462 -2.7504  2.3960 -0.6598
 2903SOL    HW2 9334   4.784   2.190   3.483 -0.9615  1.2080 -0.8943
 2904SOL     OW 9335   2.584   0.308   1.137  0.2187 -0.1579  0.0713
 2904SOL    HW1 9336   2.563   0.370   1.061  1.5269 -0.9571 -0.9962
 2904SOL    HW2 9337   2.571   0.356   1.224 -1.1547  0.8298 -0.6436
 2905SOL     OW 9338   3.800   4.194   1.401  0.6198  0.3114  0.5904
 2905SOL    HW1 9339   3.709   4.235   1.403  0.1365 -0.7145  2.9409
 2905SOL    HW2 9340   3.792   4.096   1.385  1.5196  0.5201 -1.4195
 2906SOL     OW 9341   0.583   3.540   4.766  0.4711 -0.0478 -0.1073
 2906SOL    HW1 9342   0.618   3.545   4.672  2.3432 -0.6501  0.5194
 2906SOL    HW2 9343   0.528   3.457   4.776  0.4748 -0.1139 -0.6107
 2907SOL     OW 9344   0.051   1.957   3.367 -0.2288  0.1406 -0.2623
 2907SOL    HW1 9345   0.070   1.972   3.269 -0.1665  2.3428  0.0344
 2907SOL    HW2 9346  -0.007   2.031   3.401  0.2427 -0.2629  1.5068
 2908SOL     OW 9347   4.352   2.356   0.044 -0.5594 -0.0208  0.3366
 2908SOL    HW1 9348   4.361   2.411   0.127 -1.2758  1.9691 -0.8428
 2908SOL    HW2 9349   4.418   2.388  -0.025 -1.2855 -0.3299 -0.5311
 2909SOL     OW 9350   2.239   2.868   2.448  0.2302 -0.0159 -0.2755
 2909SOL    HW1 9351   2.199   2.857   2.357 -0.8944 -1.4317  0.3466
 2909SOL    HW2 9352   2.219   2.959   2.483 -1.7071 -0.3661 -0.3663
 2910SOL     OW 9353   1.683   0.547   4.856 -0.4523 -0.2640  0.5480
 2910SOL    HW1 9354   1.651   0.471   4.798 -2.8500 -0.8549  2.4715
 2910SOL    HW2 9355   1.630   0.629   4.835 -1.8083 -0.6499  2.2113
 2911SOL     OW 9356   4.911   2.302   2.782 -0.3092  0.0068  0.2671
 2911SOL    HW1 9357   4.859   2.220   2.804  0.2030 -0.6706 -0.9500
 2911SOL    HW2 9358   4.977   2.320   2.854 -1.4763  0.2805  1.3183
 2912SOL     OW 9359   2.362   1.781   2.523  0.5339  0.3844 -0.2838
 2912SOL    HW1 9360   2.378   1.692   2.481 -0.8276 -0.4768  0.8996
 2912SOL    HW2 9361   2.433   1.845   2.495  1.0979 -0.8399 -1.7982
 2913SOL     OW 9362   1.919   3.122   4.356 -0.3582  0.1405 -0.8846
 2913SOL    HW1 9363   1.834   3.121   4.409  0.8269 -1.8639  1.1608
 2913SOL    HW2 9364   1.943   3.028   4.330  0.8880  0.7389 -2.0458
 2914SOL     OW 9365   2.057   2.766   1.139 -0.1713 -0.2740 -0.0936
 2914SOL    HW1 9366   2.046   2.669   1.118  1.8634 -1.2806  2.8176
 2914SOL    HW2 9367   2.079   2.776   1.236  0.1704  3.0864 -0.4211
 2915SOL     OW 9368   3.092   1.681   1.275 -0.1021 -0.2275 -0.4362
 2915SOL    HW1 9369   3.183   1.683   1.316  0.3531 -1.1689 -1.3578
 2915SOL    HW2 9370   3.023   1.684   1.347  0.6427  0.8934  0.2550
 2916SOL     OW 9371   4.200   1.830   4.820  0.0455 -0.1324 -0.3851
 2916SOL    HW1 9372   4.281   1.777   4.846 -0.1068 -0.4859 -0.6134
 2916SOL    HW2 9373   4.132   1.825   4.893 -0.1489 -0.6353 -0.5931
 2917SOL     OW 9374   1.611   4.647   3.490  0.2454  0.1275 -0.1742
 2917SOL    HW1 9375   1.591   4.596   3.406 -1.0532  0.8125 -0.3086
 2917SOL    HW2 9376   1.564   4.735   3.487  1.5532  0.8761  0.5483
 2918SOL     OW 9377   1.933   0.755   2.461 -0.3012 -0.4195 -0.6537
 2918SOL    HW1 9378   1.835   0.769   2.447 -0.2769  0.7797  0.2192
 2918SOL    HW2 9379   1.983   0.837   2.431  0.0359  0.8095  2.8613
 2919SOL     OW 9380   2.656   4.172   3.905  0.3632 -0.1541  0.4200
 2919SOL    HW1 9381   2.660   4.089   3.961  0.1582 -0.3653  0.1238
 2919SOL    HW2 9382   2.705   4.156   3.820  1.5972  0.5195  0.9881
 2920SOL     OW 9383   3.512   1.746   1.694  0.8009  0.1453 -0.2280
 2920SOL    HW1 9384   3.412   1.751   1.683  0.6150  1.5346  1.5425
 2920SOL    HW2 9385   3.534   1.669   1.754  0.8492 -0.3804 -0.9039
 2921SOL     OW 9386   0.832   2.003   0.086 -0.1376  0.1790 -0.9010
 2921SOL    HW1 9387   0.848   1.938   0.161  0.9312 -1.3232 -2.3329
 2921SOL    HW2 9388   0.735   2.005   0.064 -0.5494  1.0792  0.8670
 2922SOL     OW 9389   2.866   4.268   3.358 -0.1264  0.1569 -0.8231
 2922SOL    HW1 9390   2.872   4.177   3.316  1.9216 -1.2667  2.1354
 2922SOL    HW2 9391   2.777   4.279   3.402 -0.0048 -0.9176 -0.2753
 2923SOL     OW 9392   1.976   0.753   4.175 -0.0719 -0.4249  0.0369
 2923SOL    HW1 9393   1.894   0.734   4.121 -0.7764  1.4388  0.3743
 2923SOL    HW2 9394   1.953   0.818   4.248  1.6513 -0.0535  0.2863
 2924SOL     OW 9395   1.989   0.951   1.731 -0.5279  0.2641 -0.5614
 2924SOL    HW1 9396   1.934   0.971   1.812 -0.9679  0.0754 -0.8035
 2924SOL    HW2 9397   1.954   0.868   1.687  0.6599 -0.4956 -0.1009
 2925SOL     OW 9398   2.232   0.056   0.141  0.7708 -0.1162  0.3872
 2925SOL    HW1 9399   2.164   0.074   0.212  1.5743 -1.5586  1.5588
 2925SOL    HW2 9400   2.186   0.057   0.052 -0.7147 -0.5419  1.1008
 2926SOL     OW 9401   0.105   4.744   1.564 -0.0999  0.1767 -0.0331
 2926SOL    HW1 9402   0.085   4.757   1.467 -0.1924  0.4954  0.0270
 2926SOL    HW2 9403   0.204   4.757   1.579 -0.3134  1.8708  0.1795
 2927SOL     OW 9404   3.539   2.952   2.803  0.0883 -0.0919  0.8874
 2927SOL    HW1 9405   3.466   2.889   2.829 -0.3230 -0.0266 -0.0549
 2927SOL    HW2 9406   3.599   2.907   2.737  0.0662  0.3416  0.5666
 2928SOL     OW 9407   1.018   2.935   3.338  0.3945  0.7344 -0.2699
 2928SOL    HW1 9408   1.078   2.864   3.374 -0.8927  0.0986  0.7014
 2928SOL    HW2 9409   0.975   2.984   3.415 -1.2828  0.3325 -0.9079
 2929SOL     OW 9410   3.652   3.845   4.735  0.3332  0.1099  0.1722
 2929SOL    HW1 9411   3.641   3.757   4.690 -1.2195 -0.1119  0.9447
 2929SOL    HW2 9412   3.699   3.908   4.673  0.2877 -0.8573 -0.8769
 2930SOL     OW 9413   1.379   0.550   3.524 -0.1218  0.3057 -0.5366
 2930SOL    HW1 9414   1.350   0.526   3.431  0.8701  0.7968 -0.9851
 2930SOL    HW2 9415   1.401   0.647   3.528  0.2217  0.2081  0.1173
 2931SOL     OW 9416   3.104   0.184   1.529 -0.1531  0.1669 -0.7256
 2931SOL    HW1 9417   3.076   0.123   1.603  0.6949 -0.5784 -1.0020
 2931SOL    HW2 9418   3.032   0.187   1.460  0.0651 -1.0547 -1.0258
 2932SOL     OW 9419   0.270   3.206   2.230  0.1332 -0.5430 -0.4668
 2932SOL    HW1 9420   0.172   3.224   2.219  0.1553 -1.0762 -1.6359
 2932SOL    HW2 9421   0.289   3.110   2.210  0.7812 -0.6531  0.5971
 2933SOL     OW 9422   2.576   1.454   4.862  0.0519  0.2073 -0.7131
 2933SOL    HW1 9423   2.661   1.410   4.833  1.1459  0.9971  1.1558
 2933SOL    HW2 9424   2.578   1.470   4.961 -1.9506  0.9769 -0.7418
 2934SOL     OW 9425   3.905   1.633   0.859 -0.6086 -0.2833  0.0827
 2934SOL    HW1 9426   3.884   1.662   0.952 -1.8519 -1.0502  0.0760
 2934SOL    HW2 9427   3.997   1.662   0.834 -0.8066  1.2512  1.0031
 2935SOL     OW 9428   4.674   1.448   4.213  0.8310 -0.1269 -0.1232
 2935SOL    HW1 9429   4.612   1.478   4.140 -0.7044 -1.8727  0.4184
 2935SOL    HW2 9430   4.741   1.384   4.176  1.3073  0.5008 -0.3716
 2936SOL     OW 9431   2.672   0.489   3.681  0.2602  0.4202  0.4445
 2936SOL    HW1 9432   2.604   0.455   3.617 -0.6316 -1.2126  2.1303
 2936SOL    HW2 9433   2.739   0.417   3.700  0.9508  1.1269  0.7540
 2937SOL     OW 9434   0.442   3.468   0.374 -0.1006  0.1741  0.2117
 2937SOL    HW1 9435   0.489   3.535   0.432 -0.4629  0.2160  0.4565
 2937SOL    HW2 9436   0.471   3.480   0.279 -0.8592  1.2891  0.1075
 2938SOL     OW 9437   1.369   0.044   1.519 -0.3531  0.0189  0.1207
 2938SOL    HW1 9438   1.326   0.095   1.594 -0.6149 -1.0363  0.7167
 2938SOL    HW2 9439   1.302   0.031   1.446 -1.0400 -1.4571  0.9655
 2939SOL     OW 9440   0.823   3.597   1.511 -0.6161  0.0499  0.5013
 2939SOL    HW1 9441   0.789   3.689   1.532  0.1046  0.5476 -0.4174
 2939SOL    HW2 9442   0.860   3.556   1.594  1.8449  1.8297  0.4298
 2940SOL     OW 9443   1.049   3.954   1.475  0.2071  0.5176 -0.3257
 2940SOL    HW1 9444   1.140   3.992   1.488  0.8609 -1.4220  1.2661
 2940SOL    HW2 9445   1.056   3.861   1.438 -1.1518  0.5823 -0.8131
 2941SOL     OW 9446   4.018   1.862   0.269  0.1190 -0.5756  0.1882
 2941SOL    HW1 9447   4.093   1.796   0.275  1.4670  0.9739  1.0488
 2941SOL    HW2 9448   4.053   1.950   0.238 -1.6154 -0.1593 -0.7625
 2942SOL     OW 9449   2.581   3.274   1.701 -0.0961 -0.2458 -0.2334
 2942SOL    HW1 9450   2.654   3.215   1.667  0.7210  0.7359 -0.2233
 2942SOL    HW2 9451   2.499   3.262   1.644  0.0278 -1.4209 -0.1833
 2943SOL     OW 9452   0.715   1.590   3.607 -0.4179 -0.1195 -0.2822
 2943SOL    HW1 9453   0.794   1.549   3.561  0.4654  0.8236  0.3374
 2943SOL    HW2 9454   0.723   1.690   3.604 -1.7138  0.0020 -0.3956
 2944SOL     OW 9455   3.779   4.460   0.977  0.1193 -0.3425  0.4006
 2944SOL    HW1 9456   3.715   4.402   1.027 -0.0420  0.2433  0.8980
 2944SOL    HW2 9457   3.740   4.552   0.969  1.1206  0.1663  1.1784
 2945SOL     OW 9458   2.964   0.036   0.500  0.4531 -0.0460 -0.1324
 2945SOL    HW1 9459   3.006   0.032   0.591  1.3487  2.2073 -0.3949
 2945SOL    HW2 9460   3.036   0.047   0.431 -0.4002  2.2550 -0.7390
 2946SOL     OW 9461   2.336   3.223   2.758 -0.4355 -0.2491 -0.0341
 2946SOL    HW1 9462   2.305   3.165   2.834 -1.8591 -1.2474 -1.3090
 2946SOL    HW2 9463   2.297   3.314   2.767  2.2443  0.8383  2.2847
 2947SOL     OW 9464   4.112   4.401   4.799  0.1372 -0.0238  0.7816
 2947SOL    HW1 9465   4.094   4.467   4.726  0.8584 -1.8653 -1.1692
 2947SOL    HW2 9466   4.081   4.310   4.769  0.2788 -0.8016  2.8777
 2948SOL     OW 9467   4.818   2.397   0.492  0.1832  0.0299  0.0957
 2948SOL    HW1 9468   4.851   2.403   0.586  1.7182  1.9041 -0.4780
 2948SOL    HW2 9469   4.735   2.451   0.482  1.2065  1.6672 -0.0203
 2949SOL     OW 9470   2.216   0.949   4.544  0.2991 -0.4216  0.0376
 2949SOL    HW1 9471   2.225   0.874   4.478  0.7280 -1.1498  0.8955
 2949SOL    HW2 9472   2.119   0.964   4.564  0.2516 -2.0058  1.2096
 2950SOL     OW 9473   4.155   1.433   0.687  0.5132 -0.5153  0.0492
 2950SOL    HW1 9474   4.107   1.392   0.764  1.3982 -0.9490  0.3850
 2950SOL    HW2 9475   4.095   1.433   0.607 -0.2853 -0.3873  0.6354
 2951SOL     OW 9476   3.936   4.684   3.386  0.2465  0.1562 -0.4497
 2951SOL    HW1 9477   3.846   4.676   3.342 -1.0822  2.7405  1.5338
 2951SOL    HW2 9478   3.995   4.609   3.355 -2.5816 -1.6912 -1.7919
 2952SOL     OW 9479   2.887   3.579   3.804 -0.6673  0.1082 -0.3974
 2952SOL    HW1 9480   2.893   3.677   3.783  0.2525  1.3541  4.5228
 2952SOL    HW2 9481   2.793   3.557   3.830 -0.0971  0.9010  2.6961
 2953SOL     OW 9482   1.178   3.247   2.424 -0.3223  0.0091 -0.7678
 2953SOL    HW1 9483   1.251   3.315   2.438  0.2322 -0.4192 -1.5301
 2953SOL    HW2 9484   1.218   3.157   2.409 -1.0699 -0.6673  1.0119
 2954SOL     OW 9485   1.785   1.095   2.266  0.3356 -0.3193 -0.2851
 2954SOL    HW1 9486   1.710   1.144   2.222  1.3875  1.5427 -0.1629
 2954SOL    HW2 9487   1.872   1.133   2.234  1.2350 -2.1087 -0.0898
 2955SOL     OW 9488   2.580   0.833   3.252  0.5602 -0.5401 -0.3982
 2955SOL    HW1 9489   2.491   0.799   3.224  0.3055 -0.6995  0.5573
 2955SOL    HW2 9490   2.589   0.929   3.226 -0.1354 -0.3551  0.0255
 2956SOL     OW 9491   2.820   1.528   4.333 -0.1734  0.2430 -0.8078
 2956SOL    HW1 9492   2.776   1.504   4.247  1.2410 -1.6574 -1.0356
 2956SOL    HW2 9493   2.754   1.516   4.408 -0.4927 -1.2077 -1.2876
 2957SOL     OW 9494   0.079   1.936   2.838  0.0523 -0.3283  0.2682
 2957SOL    HW1 9495   0.018   1.917   2.760  1.3404  0.8673 -1.0933
 2957SOL    HW2 9496   0.115   1.850   2.874 -2.9156 -1.1398  1.5882
 2958SOL     OW 9497   2.670   0.742   3.835 -0.5419  0.1653  0.3684
 2958SOL    HW1 9498   2.697   0.654   3.796 -2.2567 -0.9306  1.4973
 2958SOL    HW2 9499   2.751   0.787   3.874  0.9492  0.6494 -2.9795
 2959SOL     OW 9500   2.567   2.866   1.761 -0.4540 -0.5240  0.4727
 2959SOL    HW1 9501   2.648   2.838   1.812 -0.3457 -0.4774  0.3265
 2959SOL    HW2 9502   2.589   2.945   1.703 -0.4900 -0.7766  0.1086
 2960SOL     OW 9503   3.592   4.666   0.629 -0.3439 -0.2936 -0.7148
 2960SOL    HW1 9504   3.526   4.616   0.572 -0.5699  0.5108 -1.1860
 2960SOL    HW2 9505   3.557   4.758   0.646  0.8486  0.2894 -1.3184
 2961SOL     OW 9506   4.144   1.081   1.800  0.0008  0.3076  0.1699
 2961SOL    HW1 9507   4.143   1.136   1.716 -1.8340  1.4497  0.8804
 2961SOL    HW2 9508   4.159   1.142   1.878  1.1741 -0.6775  0.7329
 2962SOL     OW 9509   4.494   2.123   2.745  0.0718  0.3780 -0.4957
 2962SOL    HW1 9510   4.490   2.029   2.712 -0.5456 -0.1504  0.9955
 2962SOL    HW2 9511   4.571   2.133   2.809  0.0334  0.8485 -0.5166
 2963SOL     OW 9512   3.272   2.423   1.246  0.0994  0.0956  0.3039
 2963SOL    HW1 9513   3.174   2.440   1.231  0.2926  3.1387  1.7261
 2963SOL    HW2 9514   3.325   2.488   1.192  1.3540 -1.0913  0.0652
 2964SOL     OW 9515   1.572   4.142   2.990 -0.2900 -0.1343  0.1079
 2964SOL    HW1 9516   1.604   4.068   3.048  1.1831 -1.6626 -2.4644
 2964SOL    HW2 9517   1.478   4.124   2.961  0.1709 -1.2349 -0.7704
 2965SOL     OW 9518   2.697   1.242   0.921  0.0970 -0.5038  0.7974
 2965SOL    HW1 9519   2.726   1.264   1.014  2.3251  2.2019 -0.3981
 2965SOL    HW2 9520   2.777   1.225   0.864 -1.2034 -1.8505 -0.7545
 2966SOL     OW 9521   1.300   4.041   1.461 -0.4313  0.9727 -0.0546
 2966SOL    HW1 9522   1.319   4.138   1.477  0.7054  0.9888 -1.3265
 2966SOL    HW2 9523   1.386   3.991   1.455 -0.8885  0.3353 -2.0195
 2967SOL     OW 9524   2.613   2.125   1.009 -0.1863  0.7177 -0.3545
 2967SOL    HW1 9525   2.562   2.067   1.073  1.8296  0.2296  0.8861
 2967SOL    HW2 9526   2.551   2.157   0.937 -1.4807 -2.7128 -0.9568
 2968SOL     OW 9527   3.342   1.581   0.528  0.3918  0.1713  0.0183
 2968SOL    HW1 9528   3.390   1.514   0.472  0.5627  0.8732 -0.6980
 2968SOL    HW2 9529   3.284   1.638   0.469  2.4618  2.5546  0.1632
 2969SOL     OW 9530   0.863   3.155   4.785 -0.1576  0.0985 -0.1006
 2969SOL    HW1 9531   0.926   3.084   4.754 -0.8225 -1.0318  1.0530
 2969SOL    HW2 9532   0.771   3.135   4.752 -0.1586  1.0772 -0.7451
 2970SOL     OW 9533   0.352   1.375   1.888 -0.1052 -0.2478  0.1204
 2970SOL    HW1 9534   0.373   1.354   1.984  1.1663 -0.4410 -0.1953
 2970SOL    HW2 9535   0.394   1.462   1.863  0.9827 -0.9912 -0.7237
 2971SOL     OW 9536   1.163   3.870   1.090 -0.6803  0.0654 -0.4667
 2971SOL    HW1 9537   1.160   3.820   1.176 -1.0641  1.7129  0.5137
 2971SOL    HW2 9538   1.071   3.901   1.066 -0.1966  1.9964  0.0150
 2972SOL     OW 9539   2.374   2.674   1.682 -0.2990  0.6471 -0.0151
 2972SOL    HW1 9540   2.428   2.749   1.720  0.1892  0.5597 -0.5223
 2972SOL    HW2 9541   2.419   2.639   1.600 -1.8646  1.5159 -1.2895
 2973SOL     OW 9542   1.730   1.404   2.479  0.0668 -0.0192 -0.4715
 2973SOL    HW1 9543   1.656   1.456   2.437 -1.1982 -0.0861  1.5413
 2973SOL    HW2 9544   1.698   1.311   2.500  0.4963  0.1489  1.0054
 2974SOL     OW 9545   0.735   0.347   3.808  0.5963  0.3117 -0.6584
 2974SOL    HW1 9546   0.693   0.437   3.801  0.1099  0.3055  1.4897
 2974SOL    HW2 9547   0.834   0.354   3.791  0.3386  0.9470 -2.0480
 2975SOL     OW 9548   2.396   1.854   4.772 -0.0984 -0.2421 -0.2889
 2975SOL    HW1 9549   2.319   1.913   4.746 -2.3418 -0.1962  5.2043
 2975SOL    HW2 9550   2.472   1.911   4.803 -1.0090 -0.1090  1.8524
 2976SOL     OW 9551   4.233   3.918   3.525  0.2781 -0.4262  0.5239
 2976SOL    HW1 9552   4.251   3.825   3.557 -0.4037 -0.3022  1.2881
 2976SOL    HW2 9553   4.287   3.983   3.579 -0.6934 -0.2357  1.2844
 2977SOL     OW 9554   3.911   2.345   2.480 -0.0938 -0.0742  0.4382
 2977SOL    HW1 9555   4.007   2.353   2.453 -0.3210 -0.3711 -0.4960
 2977SOL    HW2 9556   3.853   2.361   2.400 -0.8900  2.0338  1.3845
 2978SOL     OW 9557   4.049   0.437   3.260  0.3873 -0.0021 -0.4492
 2978SOL    HW1 9558   3.960   0.413   3.298  0.8724 -0.1229  0.6449
 2978SOL    HW2 9559   4.121   0.391   3.312  1.3159  2.8614  1.0272
 2979SOL     OW 9560   2.083   3.358   3.634  0.1092  0.2116 -0.1211
 2979SOL    HW1 9561   2.046   3.430   3.575 -0.5594  0.4029  0.5110
 2979SOL    HW2 9562   2.160   3.314   3.589 -1.0969 -0.4469 -1.6318
 2980SOL     OW 9563   1.217   1.192   2.064 -0.1431 -0.4269  0.3780
 2980SOL    HW1 9564   1.135   1.164   2.115 -2.3979 -1.1132 -3.2391
 2980SOL    HW2 9565   1.262   1.111   2.027  1.5046  0.0394  1.2746
 2981SOL     OW 9566   3.274   3.915   2.383 -0.5781  0.0618  0.0153
 2981SOL    HW1 9567   3.190   3.969   2.386  0.4206  1.7108 -0.5089
 2981SOL    HW2 9568   3.339   3.951   2.450  0.1155 -0.4963 -0.3481
 2982SOL     OW 9569   2.904   3.926   3.281  0.4902  0.3676 -0.0900
 2982SOL    HW1 9570   2.863   3.886   3.363  0.2892 -1.1892 -0.9049
 2982SOL    HW2 9571   2.833   3.943   3.213  0.7531  0.9092 -0.2343
 2983SOL     OW 9572   0.376   4.735   1.599 -0.7947 -0.3296 -0.2196
 2983SOL    HW1 9573   0.384   4.655   1.659 -0.2568  0.4791  0.8249
 2983SOL    HW2 9574   0.432   4.721   1.517 -1.9575 -1.6722 -0.8057
 2984SOL     OW 9575   3.915   3.750   2.269  0.0703 -0.4775  0.9108
 2984SOL    HW1 9576   3.918   3.821   2.340  0.4389 -0.7997  1.2199
 2984SOL    HW2 9577   3.821   3.717   2.260 -0.3143  0.7729  0.0358
 2985SOL     OW 9578   2.152   3.964   1.636  0.2167 -0.0580  0.8451
 2985SOL    HW1 9579   2.096   3.996   1.559  1.0167 -1.6363 -0.4571
 2985SOL    HW2 9580   2.093   3.923   1.705 -0.3890 -0.2183  0.2482
 2986SOL     OW 9581   1.925   0.179   2.529 -0.3683 -0.2659 -0.7197
 2986SOL    HW1 9582   1.910   0.267   2.483 -3.2229 -0.0494  0.3929
 2986SOL    HW2 9583   1.906   0.190   2.627 -0.3973 -2.0501 -0.5037
 2987SOL     OW 9584   4.377   3.513   0.978  0.2711  0.2421 -0.4370
 2987SOL    HW1 9585   4.312   3.459   0.924 -1.1428  1.3367  0.1198
 2987SOL    HW2 9586   4.460   3.459   0.992 -0.5592 -1.2739 -1.0118
 2988SOL     OW 9587   0.821   0.916   1.111 -0.1508  0.1580  0.0365
 2988SOL    HW1 9588   0.728   0.913   1.076  0.4265  1.3211 -1.7563
 2988SOL    HW2 9589   0.844   0.828   1.153 -1.6930 -0.4934 -0.4159
 2989SOL     OW 9590   3.101   0.864   0.721  0.3800 -0.0107 -0.3310
 2989SOL    HW1 9591   3.101   0.955   0.763  1.0511 -0.7988  1.5113
 2989SOL    HW2 9592   3.048   0.866   0.637  0.6816  2.1626 -0.5342
 2990SOL     OW 9593   2.988   3.116   1.715 -0.0603 -0.4199  0.1224
 2990SOL    HW1 9594   2.961   3.094   1.809  1.5127  0.7146  0.8726
 2990SOL    HW2 9595   3.004   3.214   1.707  2.4923 -0.8141 -0.5685
 2991SOL     OW 9596   2.403   3.712   1.367  0.3721 -0.4155 -0.4864
 2991SOL    HW1 9597   2.389   3.665   1.455 -3.7797  0.6860 -0.3507
 2991SOL    HW2 9598   2.388   3.810   1.380 -1.9981 -0.4252 -2.6731
 2992SOL     OW 9599   1.580   4.903   3.261 -0.6760  0.1558  0.3260
 2992SOL    HW1 9600   1.568   4.872   3.167 -0.1035  1.9538 -0.3683
 2992SOL    HW2 9601   1.515   4.977   3.281  0.4943  1.1056  0.7080
 2993SOL     OW 9602   3.650   0.710   2.822  0.1326 -0.1999 -0.2705
 2993SOL    HW1 9603   3.733   0.661   2.847  1.4982  0.5141 -3.0239
 2993SOL    HW2 9604   3.588   0.714   2.901  1.5416 -3.0061  1.1186
 2994SOL     OW 9605   2.584   4.848   0.457 -0.4481 -0.0930 -0.9845
 2994SOL    HW1 9606   2.548   4.825   0.367  1.4240 -1.0475 -1.5417
 2994SOL    HW2 9607   2.509   4.860   0.522 -1.8105  0.4175 -2.6155
 2995SOL     OW 9608   2.277   2.051   1.182  0.7072  0.1108  0.1220
 2995SOL    HW1 9609   2.228   1.990   1.120 -0.1863  0.0928  0.8171
 2995SOL    HW2 9610   2.361   2.008   1.212  0.3453 -0.5557  0.1894
 2996SOL     OW 9611   0.420   0.207   1.332 -0.0612  0.0975  0.3083
 2996SOL    HW1 9612   0.500   0.209   1.392  0.0478  0.9280  0.1505
 2996SOL    HW2 9613   0.337   0.220   1.386  0.1081  1.8979  0.1913
 2997SOL     OW 9614   3.331   1.727   2.425 -0.9293  0.7516  0.2222
 2997SOL    HW1 9615   3.235   1.696   2.422 -0.5568 -0.5073  0.7166
 2997SOL    HW2 9616   3.371   1.701   2.513  0.0961  0.5578 -0.2953
 2998SOL     OW 9617   0.846   1.010   1.931  0.5212 -0.0954  0.2482
 2998SOL    HW1 9618   0.764   1.043   1.979 -0.0248 -1.2119  0.1257
 2998SOL    HW2 9619   0.876   0.924   1.974  0.1599 -0.9920 -1.2315
 2999SOL     OW 9620   4.326   2.830   1.495  0.4356 -0.0246 -0.4947
 2999SOL    HW1 9621   4.266   2.910   1.485 -1.2763 -1.2225 -0.2436
 2999SOL    HW2 9622   4.421   2.859   1.488 -0.1186  2.1054  0.0174
 3000SOL     OW 9623   2.829   1.893   2.543 -0.6018  0.2553 -0.8078
 3000SOL    HW1 9624   2.919   1.930   2.565 -0.8829  0.1413  0.5741
 3000SOL    HW2 9625   2.838   1.800   2.506 -0.1478  0.3307 -0.8818
 3001SOL     OW 9626   2.781   0.416   0.553 -0.6241  0.2393  0.2146
 3001SOL    HW1 9627   2.866   0.439   0.505  0.4858 -0.0807  1.9461
 3001SOL    HW2 9628   2.735   0.343   0.504  0.0281  0.4862 -0.8167
 3002SOL     OW 9629   3.768   3.885   0.058  0.3658  0.7562 -0.0818
 3002SOL    HW1 9630   3.851   3.940   0.048  0.8359  0.1894  0.6329
 3002SOL    HW2 9631   3.732   3.862  -0.032  0.7639  1.3297 -0.3963
 3003SOL     OW 9632   2.351   1.437   1.706  0.2172  0.0550 -0.4265
 3003SOL    HW1 9633   2.254   1.460   1.710  0.3877  0.7463 -0.1897
 3003SOL    HW2 9634   2.373   1.405   1.614 -0.1485  0.2878 -0.5992
 3004SOL     OW 9635   2.331   3.546   2.091  0.2431 -0.2818  0.2945
 3004SOL    HW1 9636   2.402   3.510   2.031 -0.3511 -0.2256 -0.4577
 3004SOL    HW2 9637   2.242   3.539   2.046 -0.2712 -0.5918  1.3251
 3005SOL     OW 9638   2.944   3.731   4.093  0.3189  0.3707  0.6030
 3005SOL    HW1 9639   2.976   3.650   4.044 -0.8637  0.8656 -1.0647
 3005SOL    HW2 9640   3.003   3.747   4.173  1.6872 -1.0484 -0.0639
 3006SOL     OW 9641   4.010   0.304   0.576 -0.3777  0.1772  0.1155
 3006SOL    HW1 9642   4.046   0.322   0.667 -0.3303 -0.0675  0.1454
 3006SOL    HW2 9643   4.039   0.377   0.514 -0.5028  0.4017  0.3192
 3007SOL     OW 9644   3.295   3.333   4.388 -0.5720  0.9651 -0.4524
 3007SOL    HW1 9645   3.354   3.275   4.444  0.2522  2.5884  0.4305
 3007SOL    HW2 9646   3.203   3.292   4.384  0.3242 -1.1156 -1.0942
 3008SOL     OW 9647   1.030   0.332   2.188  0.4589  0.0002 -0.2445
 3008SOL    HW1 9648   1.086   0.285   2.257 -0.7700 -0.5561  0.3983
 3008SOL    HW2 9649   0.985   0.411   2.230 -0.4543 -0.4563 -0.3366
 3009SOL     OW 9650   0.028   4.806   0.462 -0.5292 -0.5805 -0.0807
 3009SOL    HW1 9651   0.100   4.826   0.394 -2.4817 -2.0023 -2.7471
 3009SOL    HW2 9652   0.049   4.720   0.508 -1.1734 -1.8436 -2.0000
 3010SOL     OW 9653   1.788   1.472   0.017  0.6138  0.1873  0.4851
 3010SOL    HW1 9654   1.838   1.558   0.028  2.7283 -0.8305 -0.6551
 3010SOL    HW2 9655   1.727   1.459   0.095 -0.0544  2.8662  0.5076
 3011SOL     OW 9656   2.054   1.684   3.649 -0.0571 -0.6341  0.5066
 3011SOL    HW1 9657   2.079   1.760   3.709  1.5367  1.0539 -2.0789
 3011SOL    HW2 9658   2.014   1.721   3.565 -0.8853 -2.8021 -0.1109
 3012SOL     OW 9659   4.343   0.250   2.303  0.2124  0.2901 -0.4362
 3012SOL    HW1 9660   4.359   0.156   2.336 -0.1845  0.6309  0.7955
 3012SOL    HW2 9661   4.336   0.311   2.382 -0.1837  1.2581 -1.2122
 3013SOL     OW 9662   0.751   4.561   3.169 -1.0393 -0.5683  0.0444
 3013SOL    HW1 9663   0.744   4.497   3.246  0.3207 -0.1414  0.5640
 3013SOL    HW2 9664   0.783   4.649   3.202 -1.1138 -0.1652 -0.9263
 3014SOL     OW 9665   4.194   1.461   4.306 -0.5176  0.0880  0.8004
 3014SOL    HW1 9666   4.245   1.437   4.388  0.2313 -0.2467  0.2420
 3014SOL    HW2 9667   4.117   1.398   4.295 -0.1520 -0.3581  0.8110
 3015SOL     OW 9668   0.880   3.006   3.592  0.0692 -0.0828  0.2555
 3015SOL    HW1 9669   0.907   3.087   3.645  0.8221  1.4067 -2.2151
 3015SOL    HW2 9670   0.810   3.031   3.525  2.0271 -0.7642 -2.2377
 3016SOL     OW 9671   2.191   3.759   3.954  0.8374  0.0938 -0.2462
 3016SOL    HW1 9672   2.176   3.781   4.050  0.1312 -1.5915  0.0713
 3016SOL    HW2 9673   2.206   3.661   3.945 -0.5918 -0.0087 -2.0164
 3017SOL     OW 9674   2.475   3.084   3.339  0.8039  0.9491  0.0628
 3017SOL    HW1 9675   2.476   3.170   3.289  0.3448  1.5224  1.0401
 3017SOL    HW2 9676   2.568   3.046   3.341  1.3969  2.4000  1.3015
 3018SOL     OW 9677   0.086   1.920   0.109  0.3788  0.1279  0.2923
 3018SOL    HW1 9678   0.061   1.896   0.015 -0.1270 -0.4138  0.5581
 3018SOL    HW2 9679   0.060   1.846   0.170 -0.3041  0.9369  1.0101
 3019SOL     OW 9680   4.887   0.764   3.146  0.4032  0.1181  0.5540
 3019SOL    HW1 9681   4.838   0.689   3.104 -1.7695  1.2367  0.9263
 3019SOL    HW2 9682   4.856   0.851   3.107  2.7355  0.8881  0.2196
 3020SOL     OW 9683   2.746   3.448   0.166 -0.1178  0.2831  0.3814
 3020SOL    HW1 9684   2.810   3.376   0.195 -1.3309 -1.6497 -1.4487
 3020SOL    HW2 9685   2.790   3.506   0.097 -0.1973 -0.8660 -0.6676
 3021SOL     OW 9686   1.303   2.484   4.421 -0.2582 -0.2867  0.2987
 3021SOL    HW1 9687   1.264   2.519   4.336  2.3543 -0.4605 -1.0463
 3021SOL    HW2 9688   1.291   2.385   4.425 -3.9835  0.0594  2.1757
 3022SOL     OW 9689   0.930   3.905   2.003  1.0077  0.4467  0.4241
 3022SOL    HW1 9690   1.005   3.964   2.032  0.9000  0.3542  0.8997
 3022SOL    HW2 9691   0.945   3.876   1.908  3.1848 -2.0319  1.3928
 3023SOL     OW 9692   3.936   4.897   2.316  0.0793 -0.0649  0.2016
 3023SOL    HW1 9693   3.991   4.967   2.271  1.3668 -1.1766  0.0054
 3023SOL    HW2 9694   3.872   4.941   2.379  0.5246  1.3104 -0.2657
 3024SOL     OW 9695   4.740   0.855   4.511 -0.7415 -0.4063  0.0981
 3024SOL    HW1 9696   4.645   0.839   4.485 -0.2553 -1.3183 -1.2531
 3024SOL    HW2 9697   4.756   0.953   4.522 -2.0349 -0.2995  1.2524
 3025SOL     OW 9698   2.650   1.489   4.529 -0.0989 -0.3664  0.4127
 3025SOL    HW1 9699   2.660   1.505   4.627 -1.3829 -0.0062  0.4976
 3025SOL    HW2 9700   2.553   1.485   4.505  0.1051 -3.1940 -0.3892
 3026SOL     OW 9701   0.619   2.580   2.055  0.2071 -0.3815  0.3628
 3026SOL    HW1 9702   0.654   2.650   2.117 -0.2506 -1.6480  2.1559
 3026SOL    HW2 9703   0.532   2.611   2.015 -0.4573 -0.2412  1.8414
 3027SOL     OW 9704   2.357   3.837   3.605  0.3361 -0.1670 -0.5023
 3027SOL    HW1 9705   2.415   3.872   3.531  0.2526  0.3499 -0.3299
 3027SOL    HW2 9706   2.372   3.892   3.687 -1.8470  1.2924 -0.9962
 3028SOL     OW 9707   3.014   4.466   3.220 -0.0973 -0.0507  0.5196
 3028SOL    HW1 9708   2.977   4.407   3.292 -1.2872 -0.3281 -0.2905
 3028SOL    HW2 9709   2.953   4.544   3.207  1.7107  1.6986  1.9305
 3029SOL     OW 9710   0.527   2.019   3.246 -0.2095  0.8005  0.2135
 3029SOL    HW1 9711   0.574   1.946   3.197  2.2424  2.0512  0.5644
 3029SOL    HW2 9712   0.437   2.035   3.204  0.1534 -0.8315 -1.2970
 3030SOL     OW 9713   0.575   0.362   3.566 -0.2235  0.0609  0.4142
 3030SOL    HW1 9714   0.611   0.447   3.605  2.5002 -0.5612 -0.5157
 3030SOL    HW2 9715   0.637   0.287   3.587 -1.0851 -1.1565 -1.1761
 3031SOL     OW 9716   0.105   2.198   0.373 -0.3226  0.6608 -0.2276
 3031SOL    HW1 9717   0.068   2.281   0.415  0.2468  1.3497 -1.0387
 3031SOL    HW2 9718   0.046   2.169   0.299 -0.2261  0.6684 -0.3075
 3032SOL     OW 9719   4.015   3.863   1.534 -0.0420  0.0140 -0.2073
 3032SOL    HW1 9720   4.054   3.775   1.507  0.8795  0.4927 -0.5262
 3032SOL    HW2 9721   4.089   3.930   1.542 -0.8160  1.0011 -0.9499
 3033SOL     OW 9722   1.583   1.740   1.567 -0.2040  0.5282  0.2767
 3033SOL    HW1 9723   1.654   1.810   1.565 -0.2445  0.6717  1.9962
 3033SOL    HW2 9724   1.557   1.722   1.662 -2.5072  0.5102 -0.3007
 3034SOL     OW 9725   0.071   3.948   3.889  0.2728  0.8609 -0.1150
 3034SOL    HW1 9726   0.102   4.042   3.895  1.1038  0.6256 -0.6032
 3034SOL    HW2 9727   0.086   3.913   3.796 -0.6728  0.4662 -0.1343
 3035SOL     OW 9728   1.675   3.617   3.681  0.4668  0.8112  0.0126
 3035SOL    HW1 9729   1.612   3.693   3.697 -0.9124 -0.2878 -0.0201
 3035SOL    HW2 9730   1.629   3.531   3.703  0.8997 -0.2626 -2.9041
 3036SOL     OW 9731   0.742   0.775   0.137  0.1035 -0.0207  0.0864
 3036SOL    HW1 9732   0.760   0.873   0.134 -0.0928 -0.0064 -1.7466
 3036SOL    HW2 9733   0.783   0.731   0.058 -0.6375 -1.2782  0.3689
 3037SOL     OW 9734   4.893   1.692   2.192  0.0732 -0.1727 -0.1025
 3037SOL    HW1 9735   4.985   1.668   2.159 -0.4188 -1.5667 -0.5283
 3037SOL    HW2 9736   4.828   1.687   2.116 -0.2904  1.3289  0.0786
 3038SOL     OW 9737   2.460   4.570   2.205  0.0536  0.1024 -0.5028
 3038SOL    HW1 9738   2.422   4.653   2.166  0.4540 -0.0932 -1.3252
 3038SOL    HW2 9739   2.387   4.505   2.224 -0.3037  0.7747  0.4979
 3039SOL     OW 9740   1.579   1.774   3.033  0.3145 -0.6115  0.0206
 3039SOL    HW1 9741   1.540   1.818   2.953  0.1252  0.2299  0.5650
 3039SOL    HW2 9742   1.659   1.720   3.005  0.7999  0.4010 -0.6065
 3040SOL     OW 9743   1.231   3.787   0.237 -0.1507  0.1817  0.1251
 3040SOL    HW1 9744   1.151   3.787   0.176 -0.2746  1.4644  0.2441
 3040SOL    HW2 9745   1.212   3.846   0.316  0.9880  0.6513  0.0621
 3041SOL     OW 9746   3.745   1.851   1.814  0.4535 -0.7514 -0.2895
 3041SOL    HW1 9747   3.681   1.834   1.739  0.9508  0.0613 -0.9205
 3041SOL    HW2 9748   3.695   1.851   1.901 -0.4626  0.0636 -0.7884
 3042SOL     OW 9749   3.763   3.584   2.509  0.2109  0.3687 -0.1936
 3042SOL    HW1 9750   3.715   3.514   2.562 -0.6679  1.4764  0.5043
 3042SOL    HW2 9751   3.848   3.545   2.474 -0.2879 -1.0735  0.1054
 3043SOL     OW 9752   4.395   2.108   3.906 -0.4121 -0.1580 -0.1473
 3043SOL    HW1 9753   4.341   2.064   3.834 -0.7233 -1.5115  0.8763
 3043SOL    HW2 9754   4.492   2.085   3.895 -0.4162 -0.0961 -0.3132
 3044SOL     OW 9755   0.959   1.558   0.071 -0.1755 -0.0120  0.2999
 3044SOL    HW1 9756   0.920   1.558   0.163 -1.3702 -1.0746 -0.1869
 3044SOL    HW2 9757   0.900   1.507   0.009  1.8851 -1.5254 -0.5362
 3045SOL     OW 9758   2.115   1.857   2.655 -0.4908 -0.6015 -0.1530
 3045SOL    HW1 9759   2.203   1.835   2.612  0.6462  1.8102  0.7189
 3045SOL    HW2 9760   2.095   1.953   2.642 -2.0871 -0.6922  1.2805
 3046SOL     OW 9761   0.078   4.306   2.878 -0.2146  0.7433 -0.3180
 3046SOL    HW1 9762   0.145   4.379   2.891 -0.1214  0.7374 -0.7325
 3046SOL    HW2 9763  -0.014   4.342   2.890 -0.1328  0.7288  0.3576
 3047SOL     OW 9764   3.517   0.987   2.053 -0.1944 -0.2106 -0.2439
 3047SOL    HW1 9765   3.494   0.891   2.040  0.6315 -0.4958  0.3174
 3047SOL    HW2 9766   3.590   0.995   2.121  0.6602  0.7260 -1.2302
 3048SOL     OW 9767   3.885   3.166   1.926 -0.1177 -0.0741 -0.0910
 3048SOL    HW1 9768   3.918   3.245   1.873 -0.6073 -0.6473 -1.2871
 3048SOL    HW2 9769   3.894   3.185   2.023  3.3051 -0.0038 -0.3073
 3049SOL     OW 9770   1.863   4.538   3.261  0.0622  0.8953  0.0032
 3049SOL    HW1 9771   1.801   4.613   3.284 -0.5668  0.2802  0.3362
 3049SOL    HW2 9772   1.817   4.474   3.200  0.8015  1.0851 -0.7674
 3050SOL     OW 9773   3.683   2.735   3.324 -0.4637  0.4152  0.0982
 3050SOL    HW1 9774   3.667   2.736   3.225 -0.9146  0.8834  0.1745
 3050SOL    HW2 9775   3.722   2.647   3.350  0.3678  0.5553 -0.6052
 3051SOL     OW 9776   1.724   3.808   4.747 -0.7643 -0.3125  0.1539
 3051SOL    HW1 9777   1.796   3.778   4.685 -1.5503 -3.5739  0.6243
 3051SOL    HW2 9778   1.764   3.860   4.823  1.0086 -1.3054 -0.0522
 3052SOL     OW 9779   3.079   0.405   3.155 -0.2596 -0.3888  0.4269
 3052SOL    HW1 9780   3.159   0.386   3.212 -0.0024 -0.2384  0.1211
 3052SOL    HW2 9781   3.010   0.334   3.169 -0.1169 -0.4586  0.7769
 3053SOL     OW 9782   0.358   0.376   2.630  0.1867 -0.5291 -0.4375
 3053SOL    HW1 9783   0.293   0.307   2.661 -0.4158 -0.0188 -0.5385
 3053SOL    HW2 9784   0.451   0.342   2.641 -0.0799 -1.0752  0.1912
 3054SOL     OW 9785   1.927   0.490   0.935  0.0148  0.2478 -0.0910
 3054SOL    HW1 9786   1.858   0.498   1.008 -0.8591  2.4652 -1.0887
 3054SOL    HW2 9787   1.899   0.418   0.871  0.8268 -1.7895  1.6785
 3055SOL     OW 9788   4.399   1.540   1.359 -0.2218  0.7093 -0.0714
 3055SOL    HW1 9789   4.349   1.610   1.307 -1.0907  0.5708  0.5678
 3055SOL    HW2 9790   4.350   1.520   1.443  0.3290 -0.2635  0.0243
 3056SOL     OW 9791   2.264   0.732   1.144 -0.5392  0.4865 -0.4222
 3056SOL    HW1 9792   2.292   0.826   1.163 -0.4604  0.8606 -2.2171
 3056SOL    HW2 9793   2.317   0.696   1.067 -1.1033 -0.7654 -0.2533
 3057SOL     OW 9794   4.100   2.710   0.273  0.4863 -0.2720  0.0217
 3057SOL    HW1 9795   4.046   2.765   0.210 -0.7805  1.2537  2.3275
 3057SOL    HW2 9796   4.178   2.764   0.306  0.2828 -0.5069  0.9021
 3058SOL     OW 9797   0.440   2.528   1.683  0.0528 -0.2506 -0.2635
 3058SOL    HW1 9798   0.358   2.504   1.632 -0.6952  0.5917  0.5097
 3058SOL    HW2 9799   0.415   2.558   1.775  1.0313  1.7729 -0.5862
 3059SOL     OW 9800   4.002   3.146   0.703  0.5950 -0.1798  0.0710
 3059SOL    HW1 9801   3.951   3.101   0.777 -0.3505 -0.3317 -0.6477
 3059SOL    HW2 9802   4.059   3.218   0.741  1.6550 -1.5560  1.1706
 3060SOL     OW 9803   1.098   0.405   1.638 -0.3015 -0.6071  0.2519
 3060SOL    HW1 9804   1.140   0.472   1.700 -0.6750 -0.7144  0.6265
 3060SOL    HW2 9805   1.122   0.312   1.668 -0.2573 -0.6532  0.0741
 3061SOL     OW 9806   2.274   1.333   2.705  0.1436  0.2763  0.9409
 3061SOL    HW1 9807   2.319   1.354   2.617 -1.4871 -1.3305 -0.3576
 3061SOL    HW2 9808   2.175   1.338   2.693 -0.1353 -1.3204  2.3293
 3062SOL     OW 9809   3.212   0.311   3.850 -0.4735 -0.0541  0.7328
 3062SOL    HW1 9810   3.254   0.244   3.789  1.0059  2.2004 -0.9124
 3062SOL    HW2 9811   3.232   0.288   3.945  2.2816 -0.5586  0.1151
 3063SOL     OW 9812   2.361   2.758   4.056 -0.4062  0.4237 -0.2079
 3063SOL    HW1 9813   2.409   2.820   4.119 -0.5694  2.3841 -1.8769
 3063SOL    HW2 9814   2.273   2.731   4.095 -0.2231  1.0518  0.6696
 3064SOL     OW 9815   2.756   0.148   3.776  0.1570  0.4952  0.1210
 3064SOL    HW1 9816   2.712   0.192   3.854 -1.2550 -0.0697 -0.3269
 3064SOL    HW2 9817   2.835   0.202   3.748  1.4159  0.1033  2.6384
 3065SOL     OW 9818   4.533   2.557   3.211  0.6028 -0.8661 -0.2243
 3065SOL    HW1 9819   4.443   2.601   3.217  1.5093  1.2266 -0.8964
 3065SOL    HW2 9820   4.576   2.557   3.302  1.4888  1.7975 -0.5643
 3066SOL     OW 9821   1.188   0.630   3.725 -0.2718 -0.1346  0.1896
 3066SOL    HW1 9822   1.258   0.602   3.659  0.3852 -1.6677  1.4700
 3066SOL    HW2 9823   1.125   0.554   3.740 -0.6487  0.3398  1.0299
 3067SOL     OW 9824   4.647   3.060   2.080 -0.1754 -0.2740 -0.4384
 3067SOL    HW1 9825   4.612   3.095   1.993  0.4028  0.4291 -0.3944
 3067SOL    HW2 9826   4.572   3.057   2.147 -0.4523 -0.0692 -0.7347
 3068SOL     OW 9827   0.536   0.276   0.187  0.1968 -0.3491 -0.7567
 3068SOL    HW1 9828   0.443   0.303   0.214 -0.0700 -1.8238 -0.1069
 3068SOL    HW2 9829   0.598   0.352   0.204 -0.2376 -0.5666  2.5537
 3069SOL     OW 9830   4.350   4.908   4.870  0.5133 -0.6823 -0.3152
 3069SOL    HW1 9831   4.384   4.865   4.787  3.5218  0.9586 -0.0715
 3069SOL    HW2 9832   4.381   4.856   4.950 -0.4232 -0.9934 -0.1436
 3070SOL     OW 9833   0.069   3.751   0.294  0.3470  0.5902  0.6419
 3070SOL    HW1 9834  -0.027   3.723   0.290  0.4360 -0.0587  2.0761
 3070SOL    HW2 9835   0.091   3.810   0.217 -0.5127 -1.3558 -1.2048
 3071SOL     OW 9836   2.544   1.861   1.865  0.3170 -0.1970 -0.7467
 3071SOL    HW1 9837   2.463   1.822   1.820  0.9258 -0.9113 -1.2401
 3071SOL    HW2 9838   2.514   1.919   1.941 -0.6529 -0.9844 -0.4961
 3072SOL     OW 9839   4.477   4.397   4.100  0.2473 -0.1358  0.1257
 3072SOL    HW1 9840   4.523   4.484   4.082 -1.3388  0.6987 -0.0832
 3072SOL    HW2 9841   4.532   4.323   4.062  0.3755  0.9960 -2.1019
 3073SOL     OW 9842   3.855   2.562   2.048 -0.2978  0.4128 -0.1153
 3073SOL    HW1 9843   3.919   2.628   2.088  1.6564 -1.7856  0.6061
 3073SOL    HW2 9844   3.808   2.512   2.121 -1.2391  0.5149 -0.6403
 3074SOL     OW 9845   4.475   3.803   4.480 -0.4086 -0.0138  0.1112
 3074SOL    HW1 9846   4.474   3.898   4.449  2.9169 -0.0745 -0.5125
 3074SOL    HW2 9847   4.432   3.746   4.410  0.6052  0.6829 -1.1353
 3075SOL     OW 9848   2.496   0.785   3.551 -0.1352  0.0930 -0.0112
 3075SOL    HW1 9849   2.534   0.805   3.461 -2.0510  0.8426 -0.7042
 3075SOL    HW2 9850   2.570   0.777   3.617  1.4227 -1.7039 -1.8373
 3076SOL     OW 9851   3.054   1.026   2.797  0.2600 -0.3406  0.0716
 3076SOL    HW1 9852   2.980   0.969   2.832  1.0616 -1.2311  0.3386
 3076SOL    HW2 9853   3.015   1.100   2.741 -0.8460 -0.5499  0.5443
 3077SOL     OW 9854   3.815   4.173   1.828 -0.6287 -0.1924  0.1014
 3077SOL    HW1 9855   3.888   4.240   1.814 -0.2346 -0.4743  0.7728
 3077SOL    HW2 9856   3.846   4.084   1.796 -0.2703 -0.5344  1.3454
 3078SOL     OW 9857   2.892   2.780   0.416  0.1443  0.1276  0.3171
 3078SOL    HW1 9858   2.824   2.842   0.454 -1.4140 -1.1698 -0.2283
 3078SOL    HW2 9859   2.951   2.746   0.490 -1.7807 -1.0804  1.3911
 3079SOL     OW 9860   3.635   4.803   3.627  0.2932 -0.2482 -0.0079
 3079SOL    HW1 9861   3.627   4.828   3.531 -1.9314  1.9008  0.6224
 3079SOL    HW2 9862   3.698   4.865   3.673  0.0706 -0.2003  0.2377
 3080SOL     OW 9863   0.059   4.881   3.067 -0.6026  0.0105  0.0229
 3080SOL    HW1 9864   0.146   4.875   3.018  0.3572 -0.4731  1.6803
 3080SOL    HW2 9865   0.061   4.959   3.130 -1.1330 -0.3268  0.4731
 3081SOL     OW 9866   4.519   1.451   0.808  0.4718 -0.1688 -0.1055
 3081SOL    HW1 9867   4.491   1.462   0.903  1.6112 -1.4722  0.4269
 3081SOL    HW2 9868   4.454   1.497   0.747 -0.0451  1.0322  1.3144
 3082SOL     OW 9869   1.442   1.628   3.660 -0.9389  0.0501 -0.4816
 3082SOL    HW1 9870   1.373   1.688   3.701 -2.4878 -1.7272 -0.3557
 3082SOL    HW2 9871   1.422   1.617   3.562  0.5724  1.3396 -0.9772
 3083SOL     OW 9872   2.077   2.930   0.468  0.4797  0.5312  0.3260
 3083SOL    HW1 9873   2.071   3.030   0.467 -1.1002  0.4690  1.1958
 3083SOL    HW2 9874   2.056   2.894   0.377  2.0452  0.9997 -0.2595
 3084SOL     OW 9875   4.785   2.578   2.311  0.0425 -0.2266  0.8559
 3084SOL    HW1 9876   4.823   2.534   2.393  1.5552 -0.1248  0.2470
 3084SOL    HW2 9877   4.768   2.508   2.241  1.8650  0.0292  0.1083
 3085SOL     OW 9878   1.436   4.706   0.351  0.5192  0.6065  0.2803
 3085SOL    HW1 9879   1.431   4.800   0.384 -0.9395  0.3763  0.7854
 3085SOL    HW2 9880   1.512   4.659   0.397  0.0920  1.0188  1.4577
 3086SOL     OW 9881   1.782   0.927   3.881 -0.3923 -0.5295  0.1263
 3086SOL    HW1 9882   1.702   0.943   3.823 -0.0900  1.0629  0.1058
 3086SOL    HW2 9883   1.866   0.948   3.831  0.0140 -1.4701  0.3860
 3087SOL     OW 9884   4.455   1.526   2.385 -0.0268  0.0880 -0.6039
 3087SOL    HW1 9885   4.438   1.468   2.465  0.2576 -0.4576 -0.9339
 3087SOL    HW2 9886   4.553   1.544   2.377 -0.1111  0.6035 -0.5171
 3088SOL     OW 9887   1.442   0.690   0.176 -0.1362 -0.2396 -0.4039
 3088SOL    HW1 9888   1.533   0.713   0.209  0.3217 -1.2343 -0.9259
 3088SOL    HW2 9889   1.417   0.598   0.209 -1.0438  0.1124 -0.0845
 3089SOL     OW 9890   2.004   0.350   0.218 -0.2103 -0.6523  0.2966
 3089SOL    HW1 9891   2.065   0.394   0.283  0.7019 -1.8927  0.3140
 3089SOL    HW2 9892   2.048   0.347   0.128 -0.7565 -0.4475  0.0236
 3090SOL     OW 9893   0.990   2.487   2.987  0.0264 -0.1794  0.6022
 3090SOL    HW1 9894   0.916   2.478   3.054 -1.6178  0.8144 -1.0139
 3090SOL    HW2 9895   1.028   2.579   2.991  0.4570 -0.3561  0.6779
 3091SOL     OW 9896   1.276   0.028   4.278  0.2677  0.0026  0.1358
 3091SOL    HW1 9897   1.327  -0.055   4.299  0.3505  0.1088  0.3543
 3091SOL    HW2 9898   1.179   0.008   4.274  0.1841  0.1190  1.3164
 3092SOL     OW 9899   4.757   2.072   1.121 -0.3339 -0.0201  0.1631
 3092SOL    HW1 9900   4.708   2.116   1.046  0.6667  0.6587 -0.1153
 3092SOL    HW2 9901   4.787   2.141   1.187  0.1642 -0.4206  0.3715
 3093SOL     OW 9902   4.876   2.143   2.050  0.1291  0.0019  0.2659
 3093SOL    HW1 9903   4.936   2.161   1.972  0.2329  0.3178  0.4145
 3093SOL    HW2 9904   4.796   2.092   2.020  0.1074  0.2316 -0.0713
 3094SOL     OW 9905   1.645   4.098   0.559 -0.0324  0.1335  0.2777
 3094SOL    HW1 9906   1.568   4.126   0.616  1.6536  1.0528  2.2316
 3094SOL    HW2 9907   1.678   4.008   0.590  0.2559  0.1656  0.0662
 3095SOL     OW 9908   0.673   0.756   1.715  0.1770  0.3001  0.1107
 3095SOL    HW1 9909   0.768   0.727   1.716  0.1254  0.0429 -1.1148
 3095SOL    HW2 9910   0.668   0.855   1.705  0.3151  0.3470  0.5000
 3096SOL     OW 9911   2.349   0.579   2.809 -0.6448 -0.1835 -0.2490
 3096SOL    HW1 9912   2.253   0.576   2.780 -0.5191 -2.6227 -0.5435
 3096SOL    HW2 9913   2.390   0.664   2.776 -3.1751  1.9476  1.6131
 3097SOL     OW 9914   4.245   0.662   1.835 -0.4219  0.0930 -0.2745
 3097SOL    HW1 9915   4.194   0.741   1.869  0.0531 -0.1613  1.1066
 3097SOL    HW2 9916   4.251   0.593   1.907  1.9569  0.1590 -0.3187
 3098SOL     OW 9917   2.303   1.451   0.302 -0.4431 -0.1492 -0.1866
 3098SOL    HW1 9918   2.305   1.438   0.401 -0.6088 -0.6829 -0.2495
 3098SOL    HW2 9919   2.240   1.525   0.278  0.6872  0.9696  0.2028
 3099SOL     OW 9920   0.675   0.837   4.198  0.0995  0.2477 -0.0427
 3099SOL    HW1 9921   0.714   0.908   4.257 -0.8025  0.4172  0.3664
 3099SOL    HW2 9922   0.717   0.842   4.108  0.5508  0.8474  0.1921
 3100SOL     OW 9923   0.496   0.675   4.271 -0.9626 -0.1606 -0.1816
 3100SOL    HW1 9924   0.578   0.717   4.232 -0.1830 -1.0245  0.4535
 3100SOL    HW2 9925   0.494   0.692   4.370  0.0705 -2.6038  0.3357
 3101SOL     OW 9926   1.541   1.497   4.471  0.4971  0.0472  0.2301
 3101SOL    HW1 9927   1.574   1.460   4.558  2.4797 -1.4432 -1.0707
 3101SOL    HW2 9928   1.462   1.445   4.439  1.5221 -1.2883 -0.2018
 3102SOL     OW 9929   1.706   1.870   0.201 -0.5847  0.5034 -0.2095
 3102SOL    HW1 9930   1.792   1.915   0.177  0.0354 -0.8542 -0.5983
 3102SOL    HW2 9931   1.637   1.889   0.131 -0.8811  2.2448  0.4924
 3103SOL     OW 9932   1.807   0.402   3.630 -0.6739  0.6153  0.0759
 3103SOL    HW1 9933   1.886   0.390   3.570 -0.2142 -1.1197  0.9543
 3103SOL    HW2 9934   1.834   0.458   3.709 -0.5160  0.6093  0.0271
 3104SOL     OW 9935   4.250   4.542   2.626 -0.4744  0.1642  0.2405
 3104SOL    HW1 9936   4.191   4.623   2.637 -1.8499 -0.6648 -0.6686
 3104SOL    HW2 9937   4.266   4.500   2.715 -1.3738  0.3386  0.4935
 3105SOL     OW 9938   3.990   3.100   2.665  0.1108  0.0860  0.2468
 3105SOL    HW1 9939   3.982   3.046   2.749  0.2482 -0.5666 -0.1519
 3105SOL    HW2 9940   4.062   3.168   2.676  1.0964 -0.9135  0.1856
 3106SOL     OW 9941   4.427   1.703   4.844  0.2870 -0.0662 -0.6343
 3106SOL    HW1 9942   4.429   1.668   4.751  1.3161 -2.8039  0.3218
 3106SOL    HW2 9943   4.515   1.744   4.866  0.1817  0.2103 -0.7223
 3107SOL     OW 9944   2.956   1.643   1.499  0.1964 -0.2099  0.1537
 3107SOL    HW1 9945   2.868   1.691   1.506 -1.8103 -3.4412 -0.6039
 3107SOL    HW2 9946   2.995   1.631   1.590 -0.5628  0.5932  0.5951
 3108SOL     OW 9947   3.711   1.160   4.092 -0.1661 -0.0207  0.8601
 3108SOL    HW1 9948   3.758   1.229   4.036 -0.6156  1.2654  2.0010
 3108SOL    HW2 9949   3.621   1.141   4.052 -0.6555  1.1959  1.3409
 3109SOL     OW 9950   1.243   2.567   4.144 -0.2772 -0.1489 -0.4634
 3109SOL    HW1 9951   1.201   2.478   4.162 -2.1290  0.7756  0.1529
 3109SOL    HW2 9952   1.303   2.561   4.065  1.3821 -2.4241  0.8718
 3110SOL     OW 9953   1.384   3.162   4.878  0.0103 -0.2572  0.0182
 3110SOL    HW1 9954   1.426   3.101   4.811 -1.3408 -0.7610 -0.4062
 3110SOL    HW2 9955   1.359   3.248   4.834  0.2791 -0.0837  0.1963
 3111SOL     OW 9956   0.193   0.936   4.208  0.2189  0.5358  0.4810
 3111SOL    HW1 9957   0.101   0.955   4.243 -0.3640 -0.0895 -0.6377
 3111SOL    HW2 9958   0.205   0.837   4.198  0.2374  0.6881 -1.2983
 3112SOL     OW 9959   0.328   2.856   4.696  0.0167 -0.7288 -0.1459
 3112SOL    HW1 9960   0.339   2.789   4.770  0.7797  0.5314  0.9358
 3112SOL    HW2 9961   0.236   2.895   4.699  0.2447 -0.2193  0.5740
 3113SOL     OW 9962   3.492   2.183   4.352 -0.6187 -0.0008 -0.0362
 3113SOL    HW1 9963   3.489   2.228   4.442 -2.4588 -0.4046  0.1424
 3113SOL    HW2 9964   3.583   2.144   4.337  0.6865  2.6719  0.3257
 3114SOL     OW 9965   2.829   0.085   4.598 -0.0218 -0.0819  0.1058
 3114SOL    HW1 9966   2.845   0.043   4.509  0.2360 -0.7229  0.4484
 3114SOL    HW2 9967   2.756   0.035   4.646  0.7994 -0.6275  0.8232
 3115SOL     OW 9968   4.630   1.484   2.006  0.1518 -0.2815 -0.3126
 3115SOL    HW1 9969   4.710   1.444   2.049 -0.1817 -1.4689 -0.7707
 3115SOL    HW2 9970   4.654   1.517   1.915  0.8786  2.3057  0.7110
 3116SOL     OW 9971   4.853   2.408   1.609  0.1742  0.4116 -0.3779
 3116SOL    HW1 9972   4.824   2.413   1.704  0.1198 -0.0700 -0.3671
 3116SOL    HW2 9973   4.792   2.347   1.559 -0.3850  1.4151 -0.9472
 3117SOL     OW 9974   3.854   3.444   4.567  0.3107 -0.0782 -0.2019
 3117SOL    HW1 9975   3.778   3.500   4.600  0.8812  0.3478  0.4166
 3117SOL    HW2 9976   3.818   3.365   4.518 -0.5215  0.3413 -0.2823
 3118SOL     OW 9977   2.750   0.710   3.455  0.1767  0.0936  0.0924
 3118SOL    HW1 9978   2.786   0.664   3.373 -0.1585 -0.2546  0.1371
 3118SOL    HW2 9979   2.754   0.648   3.533  0.3020  0.3548  0.2959
 3119SOL     OW 9980   3.177   2.777   3.297  0.3782  0.2044  0.3242
 3119SOL    HW1 9981   3.192   2.746   3.203  0.6597 -2.2150  1.0811
 3119SOL    HW2 9982   3.265   2.788   3.343  0.2578 -2.4206  1.3526
 3120SOL     OW 9983   3.861   0.581   0.132  0.5388  0.1301 -0.3459
 3120SOL    HW1 9984   3.777   0.550   0.088 -0.0508  1.6454 -0.3509
 3120SOL    HW2 9985   3.909   0.503   0.172  0.5978 -1.1598 -2.7590
 3121SOL     OW 9986   2.709   3.628   4.556  0.5441  0.3739  0.2527
 3121SOL    HW1 9987   2.745   3.708   4.604  1.0414  0.6081 -0.4959
 3121SOL    HW2 9988   2.609   3.626   4.566  0.7361 -0.2941  2.3554
 3122SOL     OW 9989   2.079   3.795   0.903 -0.2146  0.5607 -0.3070
 3122SOL    HW1 9990   2.067   3.711   0.850  4.0549  0.1519 -0.9578
 3122SOL    HW2 9991   2.049   3.873   0.848 -3.4326 -0.3237 -0.0224
 3123SOL     OW 9992   2.999   4.336   0.652 -0.1069  0.7961  0.1350
 3123SOL    HW1 9993   3.085   4.375   0.618 -0.1473  0.7316 -0.0403
 3123SOL    HW2 9994   3.012   4.307   0.747  0.3391 -0.0488 -0.1673
 3124SOL     OW 9995   1.037   4.818   4.168  0.1728 -0.1669 -0.0527
 3124SOL    HW1 9996   1.107   4.817   4.096  0.4244  0.6637  0.1659
 3124SOL    HW2 9997   0.987   4.905   4.164  0.3935  0.0227  0.9566
 3125SOL     OW 9998   1.403   1.386   3.803  0.4192 -0.0849  0.0153
 3125SOL    HW1 9999   1.414   1.483   3.779  0.3629  0.2311  1.1595
 3125SOL    HW210000   1.493   1.344   3.815  0.4666  0.2752  1.1022
 3126SOL     OW10001   2.591   2.414   2.922 -0.2899 -0.4560 -0.1939
 3126SOL    HW110002   2.613   2.474   2.845  1.6641 -0.4513  0.3110
 3126SOL    HW210003   2.511   2.358   2.899 -1.5418  1.5763 -1.0650
 3127SOL     OW10004   1.155   4.632   2.831 -0.0818 -0.4898 -1.0914
 3127SOL    HW110005   1.226   4.571   2.867  0.6055  0.6430 -0.4865
 3127SOL    HW210006   1.105   4.585   2.758  0.9663 -1.4869 -1.1940
 3128SOL     OW10007   3.441   4.398   3.773  0.0227  0.1882  0.0514
 3128SOL    HW110008   3.419   4.485   3.816 -1.0678 -0.4752  0.8983
 3128SOL    HW210009   3.421   4.402   3.675 -0.4025  0.7590  0.1610
 3129SOL     OW10010   3.868   1.077   2.425 -0.5170 -0.2193  0.5433
 3129SOL    HW110011   3.956   1.054   2.382 -0.1439  0.1834  1.0867
 3129SOL    HW210012   3.805   1.000   2.415 -0.5307 -0.0423 -0.9622
 3130SOL     OW10013   2.783   0.479   4.415 -0.3693  0.2047 -0.1127
 3130SOL    HW110014   2.832   0.452   4.498 -1.6570 -0.1576  0.5567
 3130SOL    HW210015   2.696   0.523   4.441 -1.5300 -1.3211 -1.2585
 3131SOL     OW10016   3.426   3.126   3.325 -0.1806 -0.3593  0.7966
 3131SOL    HW110017   3.485   3.188   3.378  0.3176 -1.0965  1.1158
 3131SOL    HW210018   3.456   3.123   3.230  0.3783 -0.8250  0.9849
 3132SOL     OW10019   4.385   2.082   4.838 -0.0486 -0.4446 -0.4649
 3132SOL    HW110020   4.347   2.007   4.891  1.3191 -0.2895  0.7858
 3132SOL    HW210021   4.383   2.166   4.892 -1.3184  0.3993 -1.7486
 3133SOL     OW10022   1.639   0.082   4.776  0.3399  0.1092  0.0662
 3133SOL    HW110023   1.617   0.044   4.686  2.2354 -0.2383 -0.3118
 3133SOL    HW210024   1.621   0.014   4.847 -1.9620  0.6750  0.0844
 3134SOL     OW10025   1.731   4.821   0.819 -0.1620  0.0807  0.3816
 3134SOL    HW110026   1.733   4.721   0.816  2.0077  0.0812  0.0908
 3134SOL    HW210027   1.637   4.853   0.817 -0.8639 -1.9236 -0.6912
 3135SOL     OW10028   1.345   1.204   0.176  0.2965 -0.2604 -0.0110
 3135SOL    HW110029   1.388   1.126   0.221  2.0636  0.4521 -0.3790
 3135SOL    HW210030   1.335   1.279   0.241 -0.3992 -0.3962  0.0559
 3136SOL     OW10031   4.313   3.936   0.991  0.4121 -0.0409  0.2331
 3136SOL    HW110032   4.332   3.891   0.903 -0.1158  0.1083  0.0372
 3136SOL    HW210033   4.256   3.877   1.047  1.0813 -0.3056  0.6434
 3137SOL     OW10034   1.468   0.244   2.104 -0.6393  0.5463  0.3456
 3137SOL    HW110035   1.499   0.251   2.009 -0.0988 -2.0164  0.2480
 3137SOL    HW210036   1.512   0.315   2.158  2.1429 -0.2508 -0.6416
 3138SOL     OW10037   3.056   1.710   0.808  0.0698  0.0135 -0.2548
 3138SOL    HW110038   3.051   1.611   0.821  0.0256 -0.1168 -1.2222
 3138SOL    HW210039   3.030   1.733   0.714 -1.2550  1.0683  0.3380
 3139SOL     OW10040   1.521   2.842   3.853  0.2141 -0.9209 -0.3627
 3139SOL    HW110041   1.521   2.866   3.950  0.0823 -1.2512 -0.2810
 3139SOL    HW210042   1.510   2.925   3.799  0.9464 -0.6531 -0.1191
 3140SOL     OW10043   2.810   1.904   1.198  0.1194  0.5140 -0.1476
 3140SOL    HW110044   2.824   1.965   1.276 -1.0133 -0.4316  0.8290
 3140SOL    HW210045   2.876   1.926   1.126  1.2792  1.3182  1.1210
 3141SOL     OW10046   4.414   1.759   1.849  0.2893  0.4165 -0.6023
 3141SOL    HW110047   4.383   1.854   1.841  0.3656  0.4743 -0.2340
 3141SOL    HW210048   4.415   1.732   1.945 -2.7252 -0.9574 -0.8209
 3142SOL     OW10049   4.732   4.643   0.979 -0.0713  0.3482  0.1345
 3142SOL    HW110050   4.772   4.734   0.985  0.3340  0.2703 -0.9967
 3142SOL    HW210051   4.731   4.600   1.069  0.1054  1.3114  0.6034
 3143SOL     OW10052   3.343   1.214   2.019 -0.2128  0.4946 -0.4756
 3143SOL    HW110053   3.410   1.141   2.026  0.4527  1.0128 -1.2727
 3143SOL    HW210054   3.256   1.178   1.985 -0.3868 -0.1948  0.6533
 3144SOL     OW10055   0.891   0.058   3.820  0.5844 -0.0489  0.2686
 3144SOL    HW110056   0.905   0.083   3.915  1.9941 -0.0048  0.0631
 3144SOL    HW210057   0.874  -0.041   3.813 -1.2264  0.2008  0.7061
 3145SOL     OW10058   4.429   1.027   3.789  0.2083  0.0065  0.2000
 3145SOL    HW110059   4.421   1.034   3.689  0.8768  1.5771  0.2261
 3145SOL    HW210060   4.347   1.063   3.832  0.4148  0.4580  0.2236
 3146SOL     OW10061   4.266   0.328   3.387  0.0743  0.0515 -0.9887
 3146SOL    HW110062   4.352   0.277   3.390  0.3742  0.3969 -2.6457
 3146SOL    HW210063   4.268   0.400   3.456  0.1559 -1.3462  0.5400
 3147SOL     OW10064   2.696   2.338   0.032  0.2914 -0.4020 -0.0382
 3147SOL    HW110065   2.771   2.289  -0.013  0.2948 -0.2447 -0.2052
 3147SOL    HW210066   2.608   2.301   0.000  0.2801 -1.8917  1.5757
 3148SOL     OW10067   0.633   3.331   0.581  0.1824 -0.4267 -0.3817
 3148SOL    HW110068   0.634   3.231   0.587 -0.8160 -0.3444  1.8191
 3148SOL    HW210069   0.538   3.363   0.573  0.5147  0.3548 -1.4033
 3149SOL     OW10070   2.137   1.819   2.262  0.7311  0.2849 -0.1232
 3149SOL    HW110071   2.154   1.867   2.176  0.6266  2.9384  1.2335
 3149SOL    HW210072   2.063   1.864   2.312  0.2837 -1.6216  1.0731
 3150SOL     OW10073   3.274   4.616   1.146 -0.5508 -0.3302 -0.3992
 3150SOL    HW110074   3.329   4.613   1.229 -0.7816  0.0448 -0.2287
 3150SOL    HW210075   3.183   4.652   1.168 -1.7130 -3.1411 -0.2008
 3151SOL     OW10076   1.024   2.456   1.877  0.2769 -0.6052 -0.9362
 3151SOL    HW110077   1.036   2.409   1.965  0.1554 -2.4646 -1.8593
 3151SOL    HW210078   1.111   2.456   1.827  0.6887  1.6088 -0.3239
 3152SOL     OW10079   1.705   1.487   0.823  0.3598  0.3387 -0.2307
 3152SOL    HW110080   1.770   1.493   0.748  0.7607  1.8729  0.2058
 3152SOL    HW210081   1.753   1.462   0.907  0.2834  0.7840 -0.0503
 3153SOL     OW10082   2.264   2.657   2.902  0.0185  0.6682  0.4232
 3153SOL    HW110083   2.270   2.620   2.810  0.1144 -1.2346  1.1576
 3153SOL    HW210084   2.342   2.716   2.920  2.5631 -2.5150  0.7579
 3154SOL     OW10085   3.113   0.462   4.168 -0.4083  0.3869  0.2837
 3154SOL    HW110086   3.173   0.381   4.167 -0.8661  0.0261  0.9554
 3154SOL    HW210087   3.048   0.456   4.093  0.8736  1.1664 -0.9325
 3155SOL     OW10088   1.791   3.941   1.126 -0.0237 -0.2472 -0.6042
 3155SOL    HW110089   1.784   3.979   1.219  0.6427  1.8653 -1.3411
 3155SOL    HW210090   1.731   3.992   1.065  1.0788 -0.2294 -1.7029
 3156SOL     OW10091   0.796   0.808   3.957  0.1479 -0.3385  0.7543
 3156SOL    HW110092   0.778   0.852   3.869  0.0708 -0.3388  0.7697
 3156SOL    HW210093   0.788   0.709   3.947 -0.9932 -0.2930  1.0103
 3157SOL     OW10094   1.855   1.319   2.929 -0.2304 -0.4468  0.3055
 3157SOL    HW110095   1.761   1.312   2.962 -0.6029  0.8651 -0.4385
 3157SOL    HW210096   1.895   1.406   2.957  0.3742 -0.4907 -0.3742
 3158SOL     OW10097   4.047   4.120   3.110  0.2388 -0.1643  0.0162
 3158SOL    HW110098   4.086   4.089   3.023  1.8980  2.2215 -0.2074
 3158SOL    HW210099   3.947   4.125   3.102  0.3433 -0.1061 -1.7477
 3159SOL     OW10100   1.951   1.277   0.097  0.4799 -0.1265 -0.1138
 3159SOL    HW110101   1.888   1.347   0.063 -1.4108 -2.0795 -0.8954
 3159SOL    HW210102   2.016   1.253   0.025 -0.1018 -0.5147 -0.5150
 3160SOL     OW10103   3.287   0.102   3.688  0.2987  0.0979  0.0672
 3160SOL    HW110104   3.191   0.080   3.675  0.6111 -0.8058 -0.8404
 3160SOL    HW210105   3.339   0.018   3.701  0.9662  0.5827  0.6197
 3161SOL     OW10106   3.255   3.948   4.338 -0.3898  0.7398  0.4678
 3161SOL    HW110107   3.353   3.959   4.320  0.0318 -1.8962  0.8319
 3161SOL    HW210108   3.206   3.948   4.251  0.5092 -2.2581 -0.1409
 3162SOL     OW10109   2.188   3.106   4.530  0.2583  0.2977  0.6578
 3162SOL    HW110110   2.252   3.116   4.606  0.3208 -1.1022  0.8036
 3162SOL    HW210111   2.094   3.106   4.564  0.1971  1.4199  0.5359
 3163SOL     OW10112   3.056   3.673   3.185  0.1081  0.4763  0.1507
 3163SOL    HW110113   3.057   3.598   3.251  0.9113  2.0336  2.0082
 3163SOL    HW210114   3.075   3.759   3.232  1.2011  1.6174 -2.2178
 3164SOL     OW10115   4.054   1.645   4.164  0.3046  0.0556 -0.1298
 3164SOL    HW110116   4.001   1.669   4.246  0.3162 -1.7504  0.4439
 3164SOL    HW210117   4.137   1.597   4.191  0.2326 -0.6959 -1.2119
 3165SOL     OW10118   3.710   3.991   3.497 -0.0747 -0.2700 -0.0306
 3165SOL    HW110119   3.667   4.049   3.566  0.7364  2.0391 -1.3473
 3165SOL    HW210120   3.809   4.001   3.502  0.0698 -1.3775 -0.4594
 3166SOL     OW10121   0.850   0.115   4.132 -0.1634 -0.2570 -0.4897
 3166SOL    HW110122   0.846   0.212   4.111  1.4860  0.2825  1.4540
 3166SOL    HW210123   0.801   0.097   4.217 -1.8019 -1.4479 -1.6030
 3167SOL     OW10124   0.178   4.204   3.894 -0.5863 -0.2049 -0.0682
 3167SOL    HW110125   0.150   4.263   3.970 -0.7915 -0.0144 -0.2924
 3167SOL    HW210126   0.190   4.259   3.811 -2.4483 -0.7010 -0.7213
 3168SOL     OW10127   0.242   1.670   2.125 -0.1261 -0.2132  0.4306
 3168SOL    HW110128   0.332   1.714   2.118  0.2268 -0.7990  1.1532
 3168SOL    HW210129   0.253   1.575   2.154 -0.7411 -1.4807 -3.0529
 3169SOL     OW10130   4.676   0.321   0.170  0.5025  0.0833 -0.4210
 3169SOL    HW110131   4.762   0.270   0.177 -0.5265 -1.8188 -0.9366
 3169SOL    HW210132   4.627   0.316   0.256  0.6809  0.7674 -0.2745
 3170SOL     OW10133   3.134   1.236   0.185  0.5170  0.0216 -1.4219
 3170SOL    HW110134   3.203   1.205   0.119  0.7693 -1.0374 -0.6838
 3170SOL    HW210135   3.176   1.240   0.276 -0.1379  0.3509 -1.1336
 3171SOL     OW10136   4.003   0.277   2.426  0.1873 -0.0720 -0.2576
 3171SOL    HW110137   4.028   0.250   2.333 -0.1414  1.3857 -0.7868
 3171SOL    HW210138   3.969   0.197   2.476 -1.5917 -0.4813 -2.0433
 3172SOL     OW10139   4.287   1.846   2.919  0.3436 -0.8090 -0.4211
 3172SOL    HW110140   4.317   1.785   2.993 -1.3407 -0.6710  0.4374
 3172SOL    HW210141   4.189   1.833   2.903  0.1775  0.8725 -0.9888
 3173SOL     OW10142   3.183   1.544   4.910  0.2449 -0.1765 -0.1802
 3173SOL    HW110143   3.228   1.604   4.976  1.0132  0.3147 -1.1273
 3173SOL    HW210144   3.098   1.508   4.949 -0.3194  1.6469  0.3502
 3174SOL     OW10145   2.093   4.437   3.142  0.1285 -0.3209  0.2458
 3174SOL    HW110146   2.066   4.355   3.092  0.3183  0.8074 -1.8246
 3174SOL    HW210147   2.013   4.476   3.189 -0.2943 -0.8433 -0.0349
 3175SOL     OW10148   3.180   4.747   4.786  0.2869  0.7845  0.2576
 3175SOL    HW110149   3.158   4.844   4.777 -0.5092  0.5745 -0.1294
 3175SOL    HW210150   3.121   4.705   4.854 -0.5231  0.2240 -0.7569
 3176SOL     OW10151   0.323   2.023   2.738 -0.3468 -0.5009 -0.0433
 3176SOL    HW110152   0.231   1.993   2.763 -0.6516 -0.7124 -1.3035
 3176SOL    HW210153   0.344   2.110   2.781 -1.5525  0.0547 -0.5450
 3177SOL     OW10154   4.005   4.371   1.470 -0.2510 -0.1204  0.0476
 3177SOL    HW110155   3.916   4.331   1.446 -0.1832  0.4881 -1.3755
 3177SOL    HW210156   4.041   4.421   1.391 -0.5866  3.2406  1.8363
 3178SOL     OW10157   3.892   2.114   1.753  0.3293  0.1400  0.5002
 3178SOL    HW110158   3.915   2.173   1.830 -1.7152  0.1308  1.1636
 3178SOL    HW210159   3.850   2.030   1.787 -0.4520  0.0647 -0.6075
 3179SOL     OW10160   0.710   3.450   2.063  0.0616 -0.1834  0.5757
 3179SOL    HW110161   0.653   3.468   1.983 -0.1971 -1.8026  0.3635
 3179SOL    HW210162   0.805   3.441   2.034 -0.3157 -3.2615 -0.0152
 3180SOL     OW10163   2.975   2.373   3.560 -0.5278 -0.0568 -0.8384
 3180SOL    HW110164   2.904   2.341   3.623 -0.4478  1.3105 -0.0127
 3180SOL    HW210165   3.031   2.442   3.605  1.7652 -1.5430 -1.2655
 3181SOL     OW10166   2.165   2.670   4.456  0.6471 -0.1245  0.1133
 3181SOL    HW110167   2.180   2.657   4.554 -1.6760 -0.6611  0.4680
 3181SOL    HW210168   2.201   2.759   4.427 -1.3948  1.4633  2.1671
 3182SOL     OW10169   1.100   4.450   2.615  0.1279  0.2183  0.0655
 3182SOL    HW110170   1.004   4.437   2.591  0.3550 -0.8625 -0.3288
 3182SOL    HW210171   1.130   4.374   2.673  1.5006 -1.0380 -2.1672
 3183SOL     OW10172   3.697   2.326   2.702  0.5426  0.0035  0.2311
 3183SOL    HW110173   3.777   2.329   2.642 -1.1070  0.2348 -2.0960
 3183SOL    HW210174   3.727   2.320   2.797  3.3527  2.5433 -0.3452
 3184SOL     OW10175   3.102   3.620   2.519  0.0589  0.3490 -0.5111
 3184SOL    HW110176   3.028   3.607   2.454 -1.1913  1.0631  0.7094
 3184SOL    HW210177   3.091   3.709   2.564  1.8879  0.6480 -0.5705
 3185SOL     OW10178   1.640   0.110   2.239  0.0283 -0.2388 -0.5554
 3185SOL    HW110179   1.568   0.148   2.181  1.4244  2.8250 -0.4434
 3185SOL    HW210180   1.729   0.145   2.209  1.1032 -1.0065  1.5665
 3186SOL     OW10181   1.338   4.382   2.372  0.0737 -0.0921  0.2279
 3186SOL    HW110182   1.337   4.463   2.430 -0.9698 -1.4324  2.1699
 3186SOL    HW210183   1.370   4.304   2.424 -1.8753 -1.5741 -0.6666
 3187SOL     OW10184   2.958   3.942   4.365 -0.1827 -0.0701  0.3167
 3187SOL    HW110185   3.008   3.858   4.383  1.2240 -0.0123 -2.7926
 3187SOL    HW210186   3.022   4.017   4.348 -1.3600  0.8765 -0.1055
 3188SOL     OW10187   0.724   3.828   1.642 -0.3331 -0.0032 -0.4615
 3188SOL    HW110188   0.659   3.901   1.617 -1.5514 -0.6471  0.7224
 3188SOL    HW210189   0.674   3.746   1.669  1.0151 -1.0362 -0.9695
 3189SOL     OW10190   2.755   2.226   4.210 -0.1920 -0.2320  0.2542
 3189SOL    HW110191   2.777   2.185   4.299 -1.3001 -2.9475 -0.6204
 3189SOL    HW210192   2.757   2.155   4.140 -0.0738  1.7048 -1.8103
 3190SOL     OW10193   0.561   2.516   3.890  0.0837 -0.0179 -0.1402
 3190SOL    HW110194   0.620   2.448   3.934  0.3043  0.5594  0.4628
 3190SOL    HW210195   0.615   2.597   3.867 -0.1727 -0.0522 -0.8949
 3191SOL     OW10196   4.515   2.490   4.766 -0.0351  0.1820 -0.1147
 3191SOL    HW110197   4.458   2.567   4.739 -0.5705 -0.3683 -0.5805
 3191SOL    HW210198   4.585   2.473   4.695 -1.2814 -1.1018 -1.0984
 3192SOL     OW10199   1.596   2.622   1.852  0.5140  0.0716 -0.6980
 3192SOL    HW110200   1.577   2.720   1.840  0.9996  0.2582 -0.0540
 3192SOL    HW210201   1.537   2.586   1.924  1.0244  0.1314 -0.2422
 3193SOL     OW10202   1.341   1.588   1.739 -0.1026 -0.2062  0.0583
 3193SOL    HW110203   1.412   1.558   1.802 -0.5815  0.1331  0.7720
 3193SOL    HW210204   1.253   1.553   1.769 -0.3958  0.3128 -0.1784
 3194SOL     OW10205   0.163   1.799   0.527 -0.3893 -0.1000 -0.2305
 3194SOL    HW110206   0.150   1.747   0.611 -0.0024 -1.2541 -0.8646
 3194SOL    HW210207   0.075   1.833   0.495 -0.4474  1.1342  1.0950
 3195SOL     OW10208   0.072   4.579   0.590 -0.1797  0.9315 -0.1531
 3195SOL    HW110209   0.160   4.611   0.625  0.2354 -1.2279  0.9608
 3195SOL    HW210210   0.083   4.489   0.549 -1.5891  1.3545 -1.5493
 3196SOL     OW10211   3.745   0.769   4.497  0.1930 -0.4751 -0.5459
 3196SOL    HW110212   3.813   0.745   4.566 -0.5944  1.9350  1.2028
 3196SOL    HW210213   3.759   0.864   4.467 -1.5965 -0.3410 -1.1073
 3197SOL     OW10214   1.794   3.929   0.074 -0.1074 -0.2436 -0.7287
 3197SOL    HW110215   1.760   4.019   0.101  0.7071 -0.2658  0.4524
 3197SOL    HW210216   1.724   3.860   0.093 -0.5921  0.0876 -1.2856
 3198SOL     OW10217   3.350   1.500   1.053  0.0455  0.0410  0.4778
 3198SOL    HW110218   3.354   1.555   0.970  0.5496  1.3368  1.3235
 3198SOL    HW210219   3.255   1.490   1.083 -0.0720  0.1650  0.1443
 3199SOL     OW10220   2.784   1.864   4.205 -0.1023  0.1933  0.2357
 3199SOL    HW110221   2.705   1.813   4.238 -0.8901  1.7236  0.7896
 3199SOL    HW210222   2.785   1.862   4.105 -1.3194  0.8284  0.1924
 3200SOL     OW10223   4.254   0.757   0.930  0.1871  0.1836  0.1988
 3200SOL    HW110224   4.284   0.766   1.025 -0.2179  1.8954  0.1824
 3200SOL    HW210225   4.287   0.834   0.876  0.9469 -1.0660 -1.2332
 3201SOL     OW10226   4.506   4.212   2.555  0.7781  0.4748 -0.0033
 3201SOL    HW110227   4.520   4.309   2.574 -0.5887  1.1651 -2.1978
 3201SOL    HW210228   4.558   4.186   2.474  1.0151 -0.6157  0.4729
 3202SOL     OW10229   1.614   0.255   0.596  0.7525 -0.3286  0.1978
 3202SOL    HW110230   1.675   0.325   0.560 -1.0023  0.3386 -1.6219
 3202SOL    HW210231   1.611   0.178   0.533 -1.6088  0.4203 -0.6827
 3203SOL     OW10232   3.166   3.523   4.551  0.3572  0.2790  0.6380
 3203SOL    HW110233   3.186   3.517   4.648 -1.9310  0.0371  1.1620
 3203SOL    HW210234   3.229   3.466   4.499  0.0202 -1.6411  2.2491
 3204SOL     OW10235   3.588   4.026   0.273  0.3665 -0.3914 -0.4611
 3204SOL    HW110236   3.660   4.007   0.340  1.2401  0.7067 -1.0537
 3204SOL    HW210237   3.614   4.106   0.218 -2.1943  1.3126  0.6196
 3205SOL     OW10238   3.972   0.373   0.253 -0.0957  0.7899 -0.6301
 3205SOL    HW110239   4.046   0.412   0.308 -1.0931  2.5123 -0.4228
 3205SOL    HW210240   3.950   0.282   0.287 -1.2779  2.1132  2.5510
 3206SOL     OW10241   3.045   4.843   3.077 -0.2238  0.1828 -0.0301
 3206SOL    HW110242   3.115   4.863   3.145 -0.7511 -0.9242  0.8727
 3206SOL    HW210243   2.968   4.796   3.121 -0.7923 -0.1233 -1.3016
 3207SOL     OW10244   4.562   0.655   2.505  0.4398 -0.5977 -0.2195
 3207SOL    HW110245   4.503   0.680   2.428  0.4921 -1.7908 -0.6726
 3207SOL    HW210246   4.516   0.585   2.560  0.5414  0.0084  0.6611
 3208SOL     OW10247   4.389   1.565   2.122 -0.4409  0.3268  0.2597
 3208SOL    HW110248   4.402   1.535   2.217  0.4390 -0.8822 -0.2113
 3208SOL    HW210249   4.473   1.548   2.070 -0.7849  1.3364 -0.6489
 3209SOL     OW10250   1.422   3.933   1.771 -0.4096  0.2032 -0.2295
 3209SOL    HW110251   1.407   3.871   1.694  0.5853 -0.6224  0.2176
 3209SOL    HW210252   1.334   3.963   1.807 -0.8963  0.3773 -1.4974
 3210SOL     OW10253   0.930   3.144   2.131 -0.0308  0.1129 -0.5187
 3210SOL    HW110254   0.836   3.112   2.144  0.0242 -0.2376 -0.9834
 3210SOL    HW210255   0.931   3.214   2.060 -0.1123  0.9924  0.3121
 3211SOL     OW10256   1.601   1.266   1.667  0.5913  0.1951 -0.6801
 3211SOL    HW110257   1.525   1.302   1.612  0.7563  1.1462 -0.2943
 3211SOL    HW210258   1.683   1.260   1.611  0.8813  1.6129 -0.4338
 3212SOL     OW10259   2.558   2.469   4.642  0.0702  0.0924  0.0992
 3212SOL    HW110260   2.575   2.374   4.668 -1.5978 -0.1491  0.3828
 3212SOL    HW210261   2.524   2.471   4.548  1.3256  0.5427 -0.3669
 3213SOL     OW10262   3.306   1.732   0.902  0.1063  0.1108  0.3468
 3213SOL    HW110263   3.217   1.745   0.856 -0.8729 -1.6867  1.6187
 3213SOL    HW210264   3.377   1.718   0.833 -1.1239 -1.3674 -0.6698
 3214SOL     OW10265   3.003   0.631   3.276  0.5914  0.4129  0.2951
 3214SOL    HW110266   3.036   0.560   3.214 -0.9678  0.1038 -0.2427
 3214SOL    HW210267   3.052   0.716   3.258 -0.3487  0.5483 -1.9829
 3215SOL     OW10268   0.770   3.777   0.157  0.2353 -0.4419 -0.1029
 3215SOL    HW110269   0.862   3.787   0.119  0.4430 -0.8657  0.2815
 3215SOL    HW210270   0.740   3.864   0.196  0.1420 -0.0790 -0.9539
 3216SOL     OW10271   2.364   1.439   0.571  0.1795  0.4384 -0.1449
 3216SOL    HW110272   2.335   1.356   0.619 -1.7838  0.0028 -1.9194
 3216SOL    HW210273   2.311   1.517   0.604  0.9354  0.7155  0.4414
 3217SOL     OW10274   0.283   0.390   0.275  0.5450  0.3962 -0.3472
 3217SOL    HW110275   0.317   0.478   0.308  1.3597  0.5756 -1.6206
 3217SOL    HW210276   0.238   0.342   0.351 -1.0256  2.4075  0.0859
 3218SOL     OW10277   2.255   3.421   0.879 -0.1360 -0.1249 -0.0313
 3218SOL    HW110278   2.267   3.411   0.780 -1.0871  0.2347 -0.1994
 3218SOL    HW210279   2.276   3.334   0.924  1.2293 -0.0274 -0.4374
 3219SOL     OW10280   0.969   2.360   4.681 -0.0071  0.1832 -0.0675
 3219SOL    HW110281   0.963   2.320   4.772  0.2304  0.4239  0.0550
 3219SOL    HW210282   0.912   2.307   4.618 -0.2735  0.0917  0.2444
 3220SOL     OW10283   3.493   2.508   1.956  0.2392 -0.2772 -0.1682
 3220SOL    HW110284   3.417   2.570   1.977  1.5292  1.2291  0.2316
 3220SOL    HW210285   3.564   2.558   1.908  1.9612 -1.0572  1.4316
 3221SOL     OW10286   3.220   0.138   0.364 -0.3782  0.4844  0.4007
 3221SOL    HW110287   3.278   0.058   0.348 -0.3630  0.6632 -0.4970
 3221SOL    HW210288   3.234   0.204   0.291 -1.6860  0.5426  0.1739
 3222SOL     OW10289   3.612   4.537   1.497  0.1255 -0.3743 -0.5467
 3222SOL    HW110290   3.584   4.542   1.593  0.7648  1.2672 -0.4125
 3222SOL    HW210291   3.708   4.562   1.488 -0.3321  1.1327 -1.7615
 3223SOL     OW10292   2.563   3.333   3.243  0.2528 -0.2124 -0.1275
 3223SOL    HW110293   2.508   3.398   3.191 -0.4936  0.1149  1.0189
 3223SOL    HW210294   2.644   3.308   3.191  0.1389  1.0221 -0.9348
 3224SOL     OW10295   3.029   2.589   3.974 -0.4528  1.1664  0.0690
 3224SOL    HW110296   3.127   2.578   3.962 -0.8625 -0.4691 -2.6324
 3224SOL    HW210297   2.994   2.517   4.035 -0.1711  0.7604 -0.2431
 3225SOL     OW10298   0.889   4.509   1.849  0.0819  0.0088  0.0543
 3225SOL    HW110299   0.854   4.578   1.912 -2.2204 -0.4710 -0.6114
 3225SOL    HW210300   0.857   4.419   1.878  0.6771 -0.4498 -0.6820
 3226SOL     OW10301   2.661   2.728   2.153 -0.4549 -0.3488  0.4535
 3226SOL    HW110302   2.737   2.666   2.172  1.1693  0.7139 -2.0232
 3226SOL    HW210303   2.688   2.794   2.083 -2.4905  2.4580  2.0819
 3227SOL     OW10304   3.746   0.440   0.720 -0.0443  0.9182  0.3918
 3227SOL    HW110305   3.690   0.449   0.637 -0.0932 -1.3715  0.1077
 3227SOL    HW210306   3.841   0.425   0.694 -0.1222 -0.2010  0.7055
 3228SOL     OW10307   2.197   3.735   1.141  0.3407 -0.6033 -0.6443
 3228SOL    HW110308   2.173   3.745   1.044 -1.0949 -1.7912 -0.4415
 3228SOL    HW210309   2.296   3.718   1.149  0.4039 -0.9701 -1.9442
 3229SOL     OW10310   4.101   3.110   0.327 -0.1324  0.3411 -0.0231
 3229SOL    HW110311   4.022   3.127   0.386 -0.0894  0.4676 -0.0006
 3229SOL    HW210312   4.077   3.042   0.258 -0.0472 -0.1364  0.4109
 3230SOL     OW10313   4.504   4.470   3.513 -0.2801  0.4182 -0.8385
 3230SOL    HW110314   4.519   4.551   3.456  1.2679  0.7297 -0.0274
 3230SOL    HW210315   4.584   4.411   3.510 -0.2626  0.3116  0.7868
 3231SOL     OW10316   3.614   4.855   1.640  0.0891  0.5921 -0.6171
 3231SOL    HW110317   3.608   4.772   1.696  3.1856  0.1107 -0.8120
 3231SOL    HW210318   3.628   4.933   1.700  0.7118  0.4578 -0.5825
 3232SOL     OW10319   3.987   1.378   0.885 -0.3425 -0.1374  0.3229
 3232SOL    HW110320   3.920   1.308   0.859 -0.0146 -0.3447  0.0119
 3232SOL    HW210321   3.942   1.467   0.892 -1.1943 -0.7091  2.8181
 3233SOL     OW10322   0.893   4.709   3.777  0.6335 -1.0055 -0.3676
 3233SOL    HW110323   0.921   4.689   3.682  1.2136 -0.6189 -0.2861
 3233SOL    HW210324   0.953   4.659   3.840  1.1620 -0.1665 -0.1879
 3234SOL     OW10325   3.067   3.777   1.382 -0.0198  0.1034 -0.4170
 3234SOL    HW110326   3.130   3.711   1.342  0.6625  0.7485 -0.4242
 3234SOL    HW210327   3.024   3.830   1.308  0.6040  0.7200 -0.3409
 3235SOL     OW10328   3.233   1.660   2.858 -0.0430 -0.4698  0.0554
 3235SOL    HW110329   3.311   1.692   2.805 -1.3009  0.1117 -1.5046
 3235SOL    HW210330   3.233   1.560   2.860  0.4937 -0.4819 -0.2878
 3236SOL     OW10331   3.672   1.420   1.130  0.0090 -0.3508 -0.6681
 3236SOL    HW110332   3.587   1.468   1.114 -1.5570 -3.0635 -1.1481
 3236SOL    HW210333   3.749   1.474   1.097 -1.6179  1.6285 -1.3497
 3237SOL     OW10334   1.469   0.187   4.173 -0.7781 -0.2713 -0.0971
 3237SOL    HW110335   1.393   0.130   4.205 -0.0936  0.0949  2.3667
 3237SOL    HW210336   1.553   0.133   4.173 -0.5840  0.0278 -0.2854
 3238SOL     OW10337   1.845   4.838   3.305 -0.0827 -0.0622 -0.7431
 3238SOL    HW110338   1.747   4.850   3.290 -0.1409  0.7028  0.1144
 3238SOL    HW210339   1.880   4.915   3.358  0.6197 -1.1718  0.4912
 3239SOL     OW10340   3.925   0.354   4.045 -0.7156  0.1165  0.0530
 3239SOL    HW110341   3.866   0.434   4.034  0.0120  0.6685  0.1008
 3239SOL    HW210342   3.967   0.332   3.957 -1.2259 -0.4636 -0.0489
 3240SOL     OW10343   1.968   1.988   4.014  0.0830  0.8313  0.1454
 3240SOL    HW110344   2.011   2.046   4.083  0.9606  0.4108 -0.0375
 3240SOL    HW210345   1.957   1.896   4.051  1.1660  0.4322 -0.4869
 3241SOL     OW10346   0.758   2.488   3.106  0.1101 -0.2772 -0.1257
 3241SOL    HW110347   0.739   2.396   3.141  1.8439 -1.4741 -2.0863
 3241SOL    HW210348   0.703   2.503   3.023  1.2859 -0.4030 -0.9619
 3242SOL     OW10349   3.719   1.571   0.698 -0.2257  0.8582  0.4886
 3242SOL    HW110350   3.759   1.576   0.607 -1.7241 -0.3678 -0.2891
 3242SOL    HW210351   3.786   1.603   0.766  1.2198  0.9995 -0.9396
 3243SOL     OW10352   4.701   2.153   2.941 -0.0030 -0.6610  0.1849
 3243SOL    HW110353   4.699   2.158   3.041  0.2860  0.3058  0.1521
 3243SOL    HW210354   4.733   2.062   2.913 -1.4824 -1.4539  0.9448
 3244SOL     OW10355   2.302   4.029   4.332  0.7279  0.1695 -0.4019
 3244SOL    HW110356   2.361   3.949   4.329 -0.2123 -0.6835  1.7170
 3244SOL    HW210357   2.352   4.106   4.372  0.7968 -0.1900  0.2169
 3245SOL     OW10358   1.194   3.026   3.174  0.9150 -0.0347  0.4423
 3245SOL    HW110359   1.191   3.125   3.187  0.5589  0.1450 -0.8171
 3245SOL    HW210360   1.133   2.981   3.240  0.8169  0.6137  0.7955
 3246SOL     OW10361   3.665   0.246   3.651  0.1873  0.4342  0.1409
 3246SOL    HW110362   3.695   0.328   3.700  0.1606  0.1562  0.6250
 3246SOL    HW210363   3.735   0.175   3.659  0.3124  0.4818 -0.4697
 3247SOL     OW10364   1.467   1.962   2.851 -0.2153 -0.4820  0.2688
 3247SOL    HW110365   1.417   2.025   2.910 -1.1436 -0.7935 -0.1808
 3247SOL    HW210366   1.405   1.920   2.785  0.6292 -0.8963 -0.2847
 3248SOL     OW10367   3.047   3.524   3.412 -0.3867  0.5288  0.0925
 3248SOL    HW110368   2.959   3.506   3.369  0.7139 -1.5632 -1.4573
 3248SOL    HW210369   3.058   3.466   3.492  0.0111 -0.0365 -0.3640
 3249SOL     OW10370   4.260   1.990   0.827  0.7117  0.1506  0.4231
 3249SOL    HW110371   4.281   2.058   0.897  2.2998  2.2104 -1.8882
 3249SOL    HW210372   4.189   2.025   0.766  1.0227 -0.5985 -0.3907
 3250SOL     OW10373   3.423   2.857   3.814  0.2158  0.1301  0.5650
 3250SOL    HW110374   3.350   2.925   3.825  1.0105  0.9571  0.8553
 3250SOL    HW210375   3.434   2.806   3.899 -0.1212 -0.0987  0.4727
 3251SOL     OW10376   0.955   0.969   2.304  0.0443 -0.3511 -0.2831
 3251SOL    HW110377   1.016   0.911   2.358 -0.3034  0.2381  0.7731
 3251SOL    HW210378   0.904   0.912   2.239  0.6202 -1.0475 -0.1396
 3252SOL     OW10379   2.112   2.131   2.580  0.3287  0.3655 -0.0370
 3252SOL    HW110380   2.158   2.171   2.500 -1.3494  0.7075 -0.8623
 3252SOL    HW210381   2.131   2.189   2.660  1.0306  0.6950 -0.4246
 3253SOL     OW10382   2.578   4.094   1.843  0.2901 -0.2488 -0.6686
 3253SOL    HW110383   2.647   4.128   1.906  0.5610 -2.3203  0.2204
 3253SOL    HW210384   2.617   4.086   1.751  0.4017  1.1222 -0.7610
 3254SOL     OW10385   2.500   1.084   3.176 -0.2433 -0.1404 -0.0377
 3254SOL    HW110386   2.416   1.068   3.228 -0.3438 -0.3144 -0.2488
 3254SOL    HW210387   2.479   1.087   3.078  0.1511 -1.3881 -0.1880
 3255SOL     OW10388   4.894   0.087   0.639  0.4128  0.1637 -0.0848
 3255SOL    HW110389   4.858   0.169   0.593 -3.1368 -0.6739  0.8593
 3255SOL    HW210390   4.888   0.009   0.578  0.7032  0.0044  0.0881
 3256SOL     OW10391   4.268   1.341   3.700 -0.0981 -0.1632 -0.2251
 3256SOL    HW110392   4.363   1.364   3.722 -0.2366  0.7912 -0.5898
 3256SOL    HW210393   4.225   1.298   3.780  0.3548  0.2971  0.2707
 3257SOL     OW10394   3.557   4.292   1.415  0.5316  0.2369 -0.1385
 3257SOL    HW110395   3.539   4.384   1.447 -0.4133  0.1301 -0.3357
 3257SOL    HW210396   3.470   4.244   1.400  0.9602 -0.1660 -1.5313
 3258SOL     OW10397   2.469   0.189   3.642 -0.4516  0.1271 -0.3579
 3258SOL    HW110398   2.522   0.104   3.642 -0.3417  0.1821 -1.5147
 3258SOL    HW210399   2.403   0.186   3.717  0.6704 -0.2518  0.6526
 3259SOL     OW10400   4.614   0.082   2.620  0.1456  0.3289  0.2732
 3259SOL    HW110401   4.661   0.005   2.664 -0.0007 -0.9522 -1.6856
 3259SOL    HW210402   4.683   0.145   2.584  0.3327 -0.1035 -0.1456
 3260SOL     OW10403   0.646   4.545   4.605  0.2347  0.0342  0.1255
 3260SOL    HW110404   0.735   4.504   4.623 -0.1428 -0.6301  0.5440
 3260SOL    HW210405   0.646   4.587   4.514  0.8282 -0.3607 -0.0636
 3261SOL     OW10406   2.874   4.139   0.439 -0.4881 -0.0701 -0.1659
 3261SOL    HW110407   2.911   4.191   0.516  0.3093  0.1474 -0.6801
 3261SOL    HW210408   2.918   4.049   0.435  0.5172  0.4342 -1.1679
 3262SOL     OW10409   0.595   2.296   4.810  0.2281 -0.0951 -0.4171
 3262SOL    HW110410   0.522   2.286   4.878  1.5274  0.2739  1.1026
 3262SOL    HW210411   0.605   2.210   4.760 -0.2756 -0.6313  0.3772
 3263SOL     OW10412   1.397   0.191   3.375 -0.0130 -0.6201 -0.0634
 3263SOL    HW110413   1.325   0.232   3.318  0.3511 -0.3510 -0.3349
 3263SOL    HW210414   1.421   0.255   3.448 -0.5891 -1.0293  0.4901
 3264SOL     OW10415   2.211   4.652   1.379 -0.2004  0.0420 -0.1375
 3264SOL    HW110416   2.111   4.646   1.374 -0.1060 -1.6706 -0.7770
 3264SOL    HW210417   2.251   4.595   1.306  1.2469  1.2503 -0.3397
 3265SOL     OW10418   3.957   2.931   0.150  0.0558  0.6226  0.5646
 3265SOL    HW110419   3.882   2.993   0.171 -0.5986 -0.1802  0.6679
 3265SOL    HW210420   3.955   2.907   0.053  0.0005  0.3862  0.6216
 3266SOL     OW10421   2.333   3.363   1.284 -0.6983 -0.1990 -0.5273
 3266SOL    HW110422   2.253   3.421   1.291 -1.1253 -0.8753  0.4458
 3266SOL    HW210423   2.414   3.419   1.267 -0.8739  0.8653  1.7693
 3267SOL     OW10424   4.728   0.546   3.847 -0.8735  0.4968 -0.1033
 3267SOL    HW110425   4.781   0.614   3.898  0.7491 -0.4249 -0.5003
 3267SOL    HW210426   4.671   0.493   3.911 -0.2444  0.5688  0.5275
 3268SOL     OW10427   1.010   2.919   4.907 -0.4000 -0.1177  0.4946
 3268SOL    HW110428   1.081   2.866   4.860 -0.2318 -0.0550  0.6767
 3268SOL    HW210429   1.053   2.988   4.964 -0.5969  1.9888 -1.7338
 3269SOL     OW10430   2.208   3.157   3.454  0.9237  0.3331 -0.0623
 3269SOL    HW110431   2.306   3.139   3.449  1.1148  1.5112 -3.5337
 3269SOL    HW210432   2.167   3.143   3.364 -2.5485 -1.9752  1.6474
 3270SOL     OW10433   3.285   2.584   0.400  0.2793  0.1490  0.1830
 3270SOL    HW110434   3.203   2.528   0.411  1.0162 -0.7642  1.2244
 3270SOL    HW210435   3.343   2.544   0.330  0.2738  0.2533  0.1198
 3271SOL     OW10436   2.366   1.170   3.764 -0.0241  0.1177  0.1076
 3271SOL    HW110437   2.297   1.238   3.789 -1.2494 -1.0131 -0.0523
 3271SOL    HW210438   2.395   1.120   3.845 -0.6125 -0.4913 -0.0487
 3272SOL     OW10439   1.517   3.835   1.478  0.1720  0.4011  0.3647
 3272SOL    HW110440   1.561   3.756   1.522  0.5030  0.6562  0.4981
 3272SOL    HW210441   1.588   3.892   1.436 -0.1020  0.4050 -0.0950
 3273SOL     OW10442   1.363   0.346   2.600 -0.0767 -0.3445 -0.6815
 3273SOL    HW110443   1.307   0.423   2.631  3.5530  1.6199  1.7007
 3273SOL    HW210444   1.379   0.283   2.675  0.7301 -0.9747 -1.3576
 3274SOL     OW10445   4.263   4.343   3.463 -0.0594 -0.0252 -0.0089
 3274SOL    HW110446   4.344   4.376   3.512 -0.9407 -1.0942  2.3330
 3274SOL    HW210447   4.285   4.257   3.417  0.4428  0.3083 -0.4005
 3275SOL     OW10448   4.290   2.839   0.405 -0.1781 -0.3388 -0.0944
 3275SOL    HW110449   4.371   2.864   0.457 -0.4084  0.5551 -0.1499
 3275SOL    HW210450   4.211   2.834   0.465 -0.3433  0.1723 -0.2635
 3276SOL     OW10451   2.730   1.359   3.764  0.2215  0.1951 -0.3891
 3276SOL    HW110452   2.721   1.323   3.857  0.6840 -0.0711 -0.4443
 3276SOL    HW210453   2.758   1.455   3.769  1.8710 -0.2646 -0.2479
 3277SOL     OW10454   1.109   3.452   2.788 -0.0259  0.1823  0.4474
 3277SOL    HW110455   1.068   3.363   2.768  0.0028 -0.2705  2.2522
 3277SOL    HW210456   1.119   3.463   2.887  3.3180  0.6587  0.1891
 3278SOL     OW10457   1.301   3.613   1.488 -0.1446  0.3949  0.2614
 3278SOL    HW110458   1.320   3.617   1.586 -1.0954 -1.5480  0.5726
 3278SOL    HW210459   1.375   3.659   1.438  0.7559  0.7339  1.8214
 3279SOL     OW10460   0.279   3.129   0.782  0.2680 -0.1474 -0.2313
 3279SOL    HW110461   0.320   3.174   0.703  0.2654  0.4587  0.1073
 3279SOL    HW210462   0.276   3.030   0.767 -1.3083  0.0723 -1.7315
 3280SOL     OW10463   4.769   1.750   3.787  0.3805 -0.4657  0.0044
 3280SOL    HW110464   4.773   1.664   3.837  1.5520 -0.7101 -0.4917
 3280SOL    HW210465   4.858   1.795   3.789  0.1250  0.1141 -0.8332
 3281SOL     OW10466   3.635   3.581   4.626  0.1614  0.2311 -0.0249
 3281SOL    HW110467   3.626   3.512   4.698 -0.9387  0.3442 -0.0383
 3281SOL    HW210468   3.586   3.551   4.544  0.1190  0.7853 -0.2096
 3282SOL     OW10469   2.548   4.204   1.408 -0.1998 -0.3052  0.3518
 3282SOL    HW110470   2.469   4.205   1.346 -2.2033  0.0851  2.7268
 3282SOL    HW210471   2.599   4.289   1.397 -1.1935  0.2724  0.0299
 3283SOL     OW10472   2.619   2.633   2.772  0.0980 -0.1453 -0.0299
 3283SOL    HW110473   2.616   2.685   2.858 -0.0358 -0.1680 -0.0202
 3283SOL    HW210474   2.561   2.677   2.704 -0.3131 -0.4829  0.0937
 3284SOL     OW10475   4.301   1.753   2.458 -0.4881 -0.3316 -0.4455
 3284SOL    HW110476   4.336   1.672   2.410  3.4812  1.6675 -1.3042
 3284SOL    HW210477   4.356   1.833   2.433 -2.2605  2.0794  2.7099
 3285SOL     OW10478   1.062   3.146   0.476  0.0230  0.0065  0.3173
 3285SOL    HW110479   1.114   3.149   0.561  2.4042  0.3200 -1.0443
 3285SOL    HW210480   1.050   3.240   0.442  0.1931 -0.1947 -0.3042
 3286SOL     OW10481   3.047   2.544   2.089  0.2552  0.8131 -0.5157
 3286SOL    HW110482   3.098   2.458   2.090 -0.0676  0.6230  0.1571
 3286SOL    HW210483   2.957   2.530   2.131 -0.0264  1.3421 -0.9282
 3287SOL     OW10484   0.835   2.755   2.144 -0.2314  0.1090  0.2091
 3287SOL    HW110485   0.859   2.724   2.052 -1.5051 -1.1771  0.2812
 3287SOL    HW210486   0.915   2.748   2.203  0.8509  1.7460 -0.9436
 3288SOL     OW10487   1.885   0.218   2.120  0.7793 -0.3083  0.3301
 3288SOL    HW110488   1.910   0.194   2.026  0.2817 -1.7004  0.5257
 3288SOL    HW210489   1.931   0.155   2.183  1.1529  0.6477  1.0348
 3289SOL     OW10490   3.518   0.969   1.335 -0.0536  0.3415  0.0804
 3289SOL    HW110491   3.541   0.876   1.305 -0.6741  0.2510 -0.1193
 3289SOL    HW210492   3.516   1.030   1.255  0.4545  0.5542  0.2231
 3290SOL     OW10493   1.636   4.186   0.127  0.1750 -0.5984 -0.1421
 3290SOL    HW110494   1.600   4.271   0.167  1.1637 -0.2494  0.0364
 3290SOL    HW210495   1.561   4.135   0.084 -0.3374  0.7072 -0.8778
 3291SOL     OW10496   4.510   2.169   0.943  0.1573  0.3987  0.2401
 3291SOL    HW110497   4.493   2.090   0.885  1.0087 -0.6314  1.3294
 3291SOL    HW210498   4.507   2.252   0.888  0.4798 -0.4914 -1.1783
 3292SOL     OW10499   0.316   4.268   4.391  0.2904  0.0537  0.5450
 3292SOL    HW110500   0.287   4.362   4.374  1.1869  0.3927  0.8613
 3292SOL    HW210501   0.239   4.216   4.428 -0.6247  0.2791 -0.9610
 3293SOL     OW10502   2.234   1.372   0.967 -0.2502 -0.2966  0.3230
 3293SOL    HW110503   2.226   1.352   1.065  0.6252  0.3182  0.5368
 3293SOL    HW210504   2.227   1.471   0.953  3.4774  0.1019  0.2723
 3294SOL     OW10505   0.354   0.421   0.016 -0.2118 -0.0221 -0.9439
 3294SOL    HW110506   0.306   0.383   0.095 -0.0880  0.7308 -0.4990
 3294SOL    HW210507   0.398   0.507   0.042  0.8386 -0.3722 -1.5160
 3295SOL     OW10508   2.414   3.173   4.004 -0.0704  0.0596 -0.5492
 3295SOL    HW110509   2.383   3.084   3.971  0.6563 -0.0970 -0.8384
 3295SOL    HW210510   2.407   3.240   3.931  1.5753 -0.2958 -1.0782
 3296SOL     OW10511   3.766   1.830   3.944  0.0868 -0.9421 -0.1572
 3296SOL    HW110512   3.844   1.892   3.931  0.5933 -1.0809  1.8429
 3296SOL    HW210513   3.685   1.869   3.901  0.6974  0.4486 -0.0937
 3297SOL     OW10514   2.194   1.869   1.033 -0.1938  0.2366  0.2781
 3297SOL    HW110515   2.217   1.774   1.055 -1.4976 -0.2903 -0.5032
 3297SOL    HW210516   2.113   1.871   0.974  0.4949  1.7839 -0.6965
 3298SOL     OW10517   1.242   0.628   4.705  0.0287  0.3221  0.5987
 3298SOL    HW110518   1.207   0.716   4.738  0.1709  0.5905  0.0429
 3298SOL    HW210519   1.333   0.641   4.665 -0.8833  0.3701 -1.6045
 3299SOL     OW10520   4.779   3.363   0.233  0.1491  0.0024  0.3613
 3299SOL    HW110521   4.735   3.273   0.233 -0.5677  0.3364 -0.8394
 3299SOL    HW210522   4.781   3.400   0.140  0.0773  1.4093  0.8888
 3300SOL     OW10523   3.459   2.356   0.774  0.5555  0.0193 -0.2103
 3300SOL    HW110524   3.475   2.404   0.688 -0.7873  0.7766 -0.0674
 3300SOL    HW210525   3.414   2.268   0.755  0.1336  0.2478 -0.2903
 3301SOL     OW10526   2.397   3.639   2.533 -0.4681 -0.0943  0.2551
 3301SOL    HW110527   2.305   3.669   2.559 -0.4672 -1.7450  2.5271
 3301SOL    HW210528   2.455   3.719   2.519 -1.7125  0.9892  0.9788
 3302SOL     OW10529   0.518   2.114   2.181  0.2221 -0.0459  0.3829
 3302SOL    HW110530   0.460   2.100   2.101 -2.2011  0.1498  2.0094
 3302SOL    HW210531   0.532   2.027   2.228 -1.8716  0.4077  1.9724
 3303SOL     OW10532   2.109   2.769   3.366 -0.1943  0.3301 -0.1770
 3303SOL    HW110533   2.191   2.814   3.331  0.4589 -1.0124 -0.4113
 3303SOL    HW210534   2.123   2.746   3.463  0.0997 -0.7673 -0.4696
 3304SOL     OW10535   3.510   1.620   2.237 -0.5494 -0.5812 -0.0939
 3304SOL    HW110536   3.466   1.680   2.304 -1.2404  0.1690 -1.1840
 3304SOL    HW210537   3.454   1.617   2.154  1.2753  0.1155 -1.3924
 3305SOL     OW10538   0.925   0.396   2.735 -0.0337  0.4259  0.0120
 3305SOL    HW110539   0.902   0.300   2.721 -2.1735  0.9940 -0.7903
 3305SOL    HW210540   0.878   0.430   2.817  0.8758  0.7614  0.4132
 3306SOL     OW10541   0.437   2.667   0.226  0.0638 -0.1727 -1.2135
 3306SOL    HW110542   0.472   2.755   0.257  0.2887 -0.1284 -1.5899
 3306SOL    HW210543   0.419   2.671   0.127 -1.0771 -0.1607 -1.0282
 3307SOL     OW10544   2.336   3.086   4.778  0.5002  0.3786  0.3295
 3307SOL    HW110545   2.285   3.126   4.854  1.3382  1.5285  0.3170
 3307SOL    HW210546   2.425   3.131   4.770  0.4782  0.2204 -1.2519
 3308SOL     OW10547   0.413   1.142   3.496 -0.4470  0.0030  0.1576
 3308SOL    HW110548   0.363   1.227   3.482 -0.4559 -0.2051 -1.1187
 3308SOL    HW210549   0.389   1.076   3.425  2.7364  0.4091 -1.4631
 3309SOL     OW10550   2.825   3.205   3.536  0.5550  0.6449  0.4131
 3309SOL    HW110551   2.923   3.226   3.536  1.0373 -0.9011 -3.1279
 3309SOL    HW210552   2.811   3.109   3.557 -0.3524  1.0441  1.7905
 3310SOL     OW10553   2.579   3.390   4.140  0.4807  0.2649 -0.0092
 3310SOL    HW110554   2.608   3.402   4.235  1.0961  0.0296 -0.1635
 3310SOL    HW210555   2.506   3.322   4.136 -0.5411  1.2925  0.4530
 3311SOL     OW10556   4.666   4.251   1.880  0.1361 -0.2476  0.0438
 3311SOL    HW110557   4.655   4.339   1.834 -1.8822 -0.8811 -0.7810
 3311SOL    HW210558   4.605   4.183   1.839  2.3717 -2.3619 -0.0671
 3312SOL     OW10559   0.385   1.677   4.077  0.7988 -0.4706  0.2901
 3312SOL    HW110560   0.474   1.643   4.108  0.9874  1.0799  1.5548
 3312SOL    HW210561   0.399   1.748   4.009  0.5317 -0.2697  0.4462
 3313SOL     OW10562   0.435   4.378   1.465  0.1143 -0.4870  0.1526
 3313SOL    HW110563   0.481   4.386   1.376 -0.7021 -1.5064 -0.3871
 3313SOL    HW210564   0.503   4.359   1.536  0.5907 -1.6051 -0.5655
 3314SOL     OW10565   4.104   1.571   3.715 -0.2449 -0.0766 -0.2558
 3314SOL    HW110566   4.028   1.565   3.779 -0.5034 -0.1537 -0.5655
 3314SOL    HW210567   4.156   1.486   3.717  1.6412  1.0057  2.1487
 3315SOL     OW10568   3.255   2.988   0.724  0.4938  0.0969  0.4116
 3315SOL    HW110569   3.233   2.896   0.692  0.2474  0.0983  0.5715
 3315SOL    HW210570   3.190   3.053   0.685  0.7143  0.2149  0.2370
 3316SOL     OW10571   0.971   3.898   1.741 -0.1161  0.8753  0.4052
 3316SOL    HW110572   0.874   3.879   1.724  0.2979 -0.8193 -0.2868
 3316SOL    HW210573   1.018   3.909   1.653  0.2339  2.2636  0.7476
 3317SOL     OW10574   4.332   1.771   3.171 -0.4500 -0.1518 -0.2950
 3317SOL    HW110575   4.255   1.834   3.183 -1.2230 -1.4790  2.4236
 3317SOL    HW210576   4.417   1.820   3.185 -0.8075  0.9901 -1.7591
 3318SOL     OW10577   0.451   0.730   3.299  0.6424  0.7959  0.1623
 3318SOL    HW110578   0.465   0.689   3.208  0.9965 -0.8664  0.9331
 3318SOL    HW210579   0.528   0.706   3.358  0.0599  1.2653  1.1196
 3319SOL     OW10580   3.121   3.973   1.769  0.0129 -0.1920  0.6537
 3319SOL    HW110581   3.148   4.041   1.837  1.2428 -0.4853  0.4960
 3319SOL    HW210582   3.024   3.951   1.779 -0.7681  2.5594 -0.1745
 3320SOL     OW10583   4.695   1.536   4.591  0.1495  0.4752 -0.2979
 3320SOL    HW110584   4.785   1.580   4.577 -0.0755  1.4187  1.0043
 3320SOL    HW210585   4.623   1.600   4.564 -0.1595 -0.3010 -1.3881
 3321SOL     OW10586   3.115   1.323   4.436 -0.1666  0.5255 -0.0679
 3321SOL    HW110587   3.210   1.298   4.420 -0.7112 -0.4259 -2.2474
 3321SOL    HW210588   3.101   1.419   4.411  0.1649  0.6079  0.0558
 3322SOL     OW10589   1.354   2.785   4.258  0.3134 -0.0139  0.3173
 3322SOL    HW110590   1.385   2.852   4.190  4.1365 -0.3519  1.4853
 3322SOL    HW210591   1.310   2.708   4.212 -0.7434  1.5046 -1.3636
 3323SOL     OW10592   3.016   2.133   3.796 -0.4167 -0.1022  0.0609
 3323SOL    HW110593   3.084   2.196   3.759  0.9898 -1.5909  0.0330
 3323SOL    HW210594   2.927   2.178   3.797  0.6745  2.2344  0.9154
 3324SOL     OW10595   1.475   1.472   1.119  0.5443 -0.2481  0.5362
 3324SOL    HW110596   1.402   1.498   1.183  0.8378  1.6726  0.1564
 3324SOL    HW210597   1.441   1.405   1.054  0.1155 -1.9537  2.4055
 3325SOL     OW10598   0.332   3.418   1.770 -0.2863  0.5668  0.2957
 3325SOL    HW110599   0.308   3.394   1.864  1.1028 -0.3656  0.4460
 3325SOL    HW210600   0.285   3.502   1.745 -0.4164  1.0364  1.9471
 3326SOL     OW10601   0.703   4.325   2.150  0.7941 -0.0509 -0.9439
 3326SOL    HW110602   0.613   4.369   2.158  0.8401  0.1316 -1.3898
 3326SOL    HW210603   0.774   4.387   2.180  0.6331 -0.8661  1.2560
 3327SOL     OW10604   3.038   2.733   0.880 -0.3961 -0.1683  0.0566
 3327SOL    HW110605   3.042   2.646   0.929  0.3398  0.3394  0.9168
 3327SOL    HW210606   2.945   2.748   0.845 -0.4777 -1.3880 -0.2928
 3328SOL     OW10607   3.693   4.091   3.977  0.4666 -0.4626  0.1179
 3328SOL    HW110608   3.714   4.160   3.908 -0.4161 -0.2939  0.0013
 3328SOL    HW210609   3.595   4.094   3.998  0.1444 -2.5589 -0.8360
 3329SOL     OW10610   2.360   3.622   1.608  0.3464  0.4702  0.7700
 3329SOL    HW110611   2.455   3.602   1.629  0.8063  1.3021 -0.4051
 3329SOL    HW210612   2.302   3.589   1.682  1.3040 -2.1236  0.4799
 3330SOL     OW10613   4.563   1.351   1.187 -0.5769  0.5973  0.5627
 3330SOL    HW110614   4.481   1.405   1.207 -0.4392  0.9778  0.1242
 3330SOL    HW210615   4.639   1.413   1.165 -0.6502  0.2199 -0.8500
 3331SOL     OW10616   0.764   1.379   2.881  0.5205  0.1438  0.0597
 3331SOL    HW110617   0.666   1.369   2.899  0.4938 -0.2638 -0.2879
 3331SOL    HW210618   0.792   1.311   2.812  1.1363 -0.0323  0.4771
 3332SOL     OW10619   2.244   2.147   3.220 -0.7694 -0.1694 -0.8858
 3332SOL    HW110620   2.335   2.134   3.259 -0.9992 -1.1529 -0.6402
 3332SOL    HW210621   2.240   2.107   3.129 -1.1001 -0.6008 -0.6861
 3333SOL     OW10622   0.892   3.840   4.622 -0.4027  0.2324  0.0051
 3333SOL    HW110623   0.906   3.753   4.669 -1.8576  1.0873  2.1586
 3333SOL    HW210624   0.835   3.900   4.678 -0.6969  2.0425 -2.0856
 3334SOL     OW10625   2.375   2.486   1.369 -0.1327  0.2040 -0.1921
 3334SOL    HW110626   2.394   2.560   1.304  3.4905 -0.4518 -0.0730
 3334SOL    HW210627   2.459   2.461   1.417 -1.7870 -2.2616  1.6734
 3335SOL     OW10628   2.806   2.489   0.235  0.4000 -0.3699 -0.0573
 3335SOL    HW110629   2.799   2.442   0.146  0.8059  1.2134 -0.9636
 3335SOL    HW210630   2.726   2.546   0.249  0.1439 -0.9175  0.8157
 3336SOL     OW10631   2.706   3.240   0.604  0.3151 -0.2334 -0.3656
 3336SOL    HW110632   2.765   3.320   0.599  0.4048  0.0286  2.6330
 3336SOL    HW210633   2.610   3.269   0.597  0.3918 -0.0795 -0.7987
 3337SOL     OW10634   1.779   0.980   4.371 -0.6152  0.0701  0.4362
 3337SOL    HW110635   1.739   1.053   4.427 -0.2465  0.0601  0.7135
 3337SOL    HW210636   1.814   1.020   4.286 -0.1107  0.2765  0.7349
 3338SOL     OW10637   4.350   1.138   2.516 -0.0771  0.0603  0.8934
 3338SOL    HW110638   4.278   1.079   2.552  0.7001 -1.8320 -0.4648
 3338SOL    HW210639   4.337   1.150   2.418 -0.0256  1.9322  1.0828
 3339SOL     OW10640   1.965   3.824   1.822  0.4757 -0.1190  0.5195
 3339SOL    HW110641   1.926   3.915   1.806  0.6188 -0.0059  0.8166
 3339SOL    HW210642   1.892   3.756   1.821  0.3725 -0.0075  0.2607
 3340SOL     OW10643   4.580   1.344   4.431 -0.3039 -0.4174  0.4787
 3340SOL    HW110644   4.609   1.376   4.341 -0.8231  0.5331  0.6372
 3340SOL    HW210645   4.624   1.398   4.502 -1.2613  0.0185  0.7505
 3341SOL     OW10646   0.696   2.348   2.143 -0.0488 -0.7198  0.4641
 3341SOL    HW110647   0.643   2.263   2.146  0.1642 -0.9222 -0.7611
 3341SOL    HW210648   0.636   2.423   2.113  0.6524 -1.3054 -2.8839
 3342SOL     OW10649   2.353   2.194   4.450 -1.0085 -0.2510  0.7307
 3342SOL    HW110650   2.360   2.292   4.436  0.2517 -0.2765  1.0785
 3342SOL    HW210651   2.349   2.147   4.362  2.9281 -0.1571  0.3120
 3343SOL     OW10652   2.663   4.050   0.095 -0.5944 -0.3551 -0.5754
 3343SOL    HW110653   2.597   4.102   0.040 -0.0402  0.8639 -0.1266
 3343SOL    HW210654   2.655   3.953   0.073 -0.4505  0.0590 -2.7714
 3344SOL     OW10655   2.671   4.177   2.298  0.5123  0.0496  0.2039
 3344SOL    HW110656   2.669   4.253   2.233  1.5907  0.0919  0.2075
 3344SOL    HW210657   2.643   4.210   2.388  0.9187  0.4368  0.1924
 3345SOL     OW10658   4.214   3.143   1.489 -0.5422  0.4921  0.0204
 3345SOL    HW110659   4.309   3.118   1.468 -0.6374 -0.2356  0.4172
 3345SOL    HW210660   4.169   3.174   1.406  0.1748  1.2838 -0.0799
 3346SOL     OW10661   1.916   1.714   4.056 -0.0982 -0.2098 -0.1050
 3346SOL    HW110662   1.915   1.655   3.975  1.9972  2.2536 -2.1138
 3346SOL    HW210663   1.961   1.666   4.132  2.1107 -1.0746 -1.8394
 3347SOL     OW10664   3.433   4.855   2.835  0.0946 -0.4446 -0.4648
 3347SOL    HW110665   3.378   4.931   2.800 -2.0628 -2.2004 -1.1329
 3347SOL    HW210666   3.510   4.840   2.773  1.8805  2.4648  0.8208
 3348SOL     OW10667   1.747   4.388   3.513  0.2287  0.0919 -0.0660
 3348SOL    HW110668   1.720   4.321   3.444 -3.1239  0.6316  0.5420
 3348SOL    HW210669   1.745   4.479   3.473  1.9887  0.1160 -0.1606
 3349SOL     OW10670   3.402   4.857   0.334  0.0383  0.6148 -0.5805
 3349SOL    HW110671   3.486   4.911   0.329 -1.0252  2.2978 -1.1205
 3349SOL    HW210672   3.376   4.827   0.243 -0.9189  1.7011 -0.6854
 3350SOL     OW10673   0.953   3.036   1.865  0.8909  0.3138 -0.6433
 3350SOL    HW110674   0.909   3.022   1.954  1.3082 -0.7177 -0.5819
 3350SOL    HW210675   1.038   3.086   1.878  1.7391 -1.1793 -0.2384
 3351SOL     OW10676   1.756   1.561   3.344 -0.1093  0.3230 -0.0153
 3351SOL    HW110677   1.851   1.542   3.321 -0.2153  1.4594 -1.6034
 3351SOL    HW210678   1.739   1.659   3.337 -1.4496  0.1172  0.0149
 3352SOL     OW10679   4.164   0.813   3.080 -0.1829  0.4619  0.2048
 3352SOL    HW110680   4.135   0.749   3.152 -1.2593  0.6040 -0.0904
 3352SOL    HW210681   4.084   0.862   3.045  0.1404 -0.4241 -1.8951
 3353SOL     OW10682   0.354   1.930   3.931 -0.7744  0.2236  0.0993
 3353SOL    HW110683   0.442   1.971   3.955 -0.0970 -1.9787  1.6833
 3353SOL    HW210684   0.348   1.921   3.831 -1.0977  4.2014 -0.3919
 3354SOL     OW10685   4.481   3.238   4.672 -0.2347 -0.9267  0.0625
 3354SOL    HW110686   4.564   3.183   4.681  1.7281  1.9549  0.9486
 3354SOL    HW210687   4.501   3.321   4.620 -2.0210  0.7890  1.9259
 3355SOL     OW10688   3.722   2.902   2.301  0.5156 -0.4938  0.2779
 3355SOL    HW110689   3.658   2.839   2.257  0.9901 -1.2465  0.6365
 3355SOL    HW210690   3.671   2.970   2.354 -0.0354 -0.0022 -0.8463
 3356SOL     OW10691   1.580   0.256   1.856  0.8437  0.4670 -0.7775
 3356SOL    HW110692   1.553   0.293   1.767  0.0216 -1.2342 -1.2757
 3356SOL    HW210693   1.622   0.166   1.843  0.6887  0.1818  0.5649
 3357SOL     OW10694   4.729   2.526   4.574  0.5236  0.0199 -0.0211
 3357SOL    HW110695   4.646   2.538   4.521 -0.2957 -0.8799  1.0141
 3357SOL    HW210696   4.778   2.613   4.581  0.9160  0.0631 -2.6132
 3358SOL     OW10697   3.219   2.321   2.067  0.0581 -0.1666  0.0710
 3358SOL    HW110698   3.315   2.324   2.039  0.1818 -1.2982  0.3321
 3358SOL    HW210699   3.186   2.227   2.065 -1.0359  0.1959  0.0561
 3359SOL     OW10700   0.277   2.179   4.676 -0.5170 -0.7535  0.2024
 3359SOL    HW110701   0.229   2.112   4.619  1.1354  0.4876 -2.9244
 3359SOL    HW210702   0.357   2.137   4.718 -0.4572 -1.1600 -0.3191
 3360SOL     OW10703   1.324   4.880   2.604 -0.1743 -0.1288  0.8027
 3360SOL    HW110704   1.420   4.897   2.584  0.4160 -2.4572  1.2516
 3360SOL    HW210705   1.303   4.910   2.697  0.6655 -1.2664  1.3869
 3361SOL     OW10706   0.022   0.561   0.955  0.0792 -0.2731  0.0879
 3361SOL    HW110707  -0.057   0.577   0.896  0.6513 -1.1164 -0.9328
 3361SOL    HW210708   0.101   0.612   0.920  0.2633 -0.2784  0.4876
 3362SOL     OW10709   1.294   1.668   0.257 -0.4165 -0.0629 -0.1748
 3362SOL    HW110710   1.253   1.719   0.182  0.7002  0.4956 -0.4383
 3362SOL    HW210711   1.393   1.681   0.256 -0.3863  0.1670  1.5447
 3363SOL     OW10712   0.125   1.161   0.628  0.1783  0.6060 -0.4589
 3363SOL    HW110713   0.185   1.177   0.707  0.5768  1.4849 -0.9192
 3363SOL    HW210714   0.088   1.249   0.596 -1.5490  0.0504 -0.0477
 3364SOL     OW10715   1.748   3.431   2.082 -0.1880  0.0137  0.2321
 3364SOL    HW110716   1.756   3.375   2.000  2.3648  0.7017 -0.0721
 3364SOL    HW210717   1.701   3.379   2.153 -2.5890 -0.5516 -1.6346
 3365SOL     OW10718   2.231   1.063   1.633  0.2665 -0.5242 -0.0875
 3365SOL    HW110719   2.275   1.081   1.720 -1.5630  0.7734  0.6383
 3365SOL    HW210720   2.150   1.005   1.647 -2.0840  2.4753 -0.2755
 3366SOL     OW10721   0.707   0.298   4.449  0.1694  0.0783  0.3764
 3366SOL    HW110722   0.795   0.320   4.405 -0.9905  0.7846 -1.7629
 3366SOL    HW210723   0.701   0.200   4.465  1.3588  0.0305  0.6037
 3367SOL     OW10724   2.619   1.671   1.192 -0.2988  0.0310  0.3083
 3367SOL    HW110725   2.643   1.581   1.227 -0.1957  0.9362  2.7540
 3367SOL    HW210726   2.698   1.713   1.148 -0.4461 -1.1657 -1.1648
 3368SOL     OW10727   1.161   3.393   1.717  0.0272  0.4304 -0.2438
 3368SOL    HW110728   1.253   3.433   1.716 -0.2056  1.0043  0.3664
 3368SOL    HW210729   1.164   3.302   1.677  1.1250 -0.1307  1.0368
 3369SOL     OW10730   1.873   0.440   2.455 -0.1224  0.8642 -0.0514
 3369SOL    HW110731   1.884   0.536   2.427 -0.6007  1.2337  0.9688
 3369SOL    HW210732   1.776   0.419   2.463 -0.0170  0.8051  1.3488
 3370SOL     OW10733   1.080   2.732   3.029  0.0846  0.0385  0.0362
 3370SOL    HW110734   1.111   2.764   3.118  0.7640  1.1998 -0.5882
 3370SOL    HW210735   1.119   2.791   2.957  0.6874 -1.6907 -1.1217
 3371SOL     OW10736   3.172   3.125   2.337 -0.1619 -0.8288  0.1890
 3371SOL    HW110737   3.208   3.217   2.351  1.3859 -1.2385 -0.9142
 3371SOL    HW210738   3.092   3.130   2.277 -0.5374 -0.1625  0.7167
 3372SOL     OW10739   3.637   3.979   3.016  0.0358  0.1821  0.8562
 3372SOL    HW110740   3.730   3.946   3.004 -0.2111 -0.3842  0.4140
 3372SOL    HW210741   3.576   3.901   3.030  0.0552  0.6504  4.5033
 3373SOL     OW10742   3.692   4.418   0.728 -0.2883  0.2942  0.4379
 3373SOL    HW110743   3.648   4.505   0.704  0.7439  0.8005  0.3352
 3373SOL    HW210744   3.739   4.428   0.816 -0.9187 -0.4362  0.8628
 3374SOL     OW10745   4.005   3.334   1.755  0.5561  0.0081  0.0379
 3374SOL    HW110746   4.088   3.348   1.700  1.8058 -1.6376  1.4210
 3374SOL    HW210747   3.926   3.367   1.703  1.7010 -1.0521 -2.5752
 3375SOL     OW10748   4.227   1.977   3.720  0.0131  0.0407  0.1697
 3375SOL    HW110749   4.278   1.898   3.756  1.1726  0.9340  0.5553
 3375SOL    HW210750   4.204   1.961   3.624  0.3003 -0.7347  0.2251
 3376SOL     OW10751   2.880   0.232   3.193  0.3091 -0.1353 -0.9049
 3376SOL    HW110752   2.876   0.173   3.112  2.3222  2.6488 -3.2439
 3376SOL    HW210753   2.801   0.293   3.194  0.4345  0.0296 -0.9561
 3377SOL     OW10754   3.528   1.090   1.073 -0.3884 -0.2742  0.3644
 3377SOL    HW110755   3.466   1.131   1.006 -0.4203  0.4756  0.8429
 3377SOL    HW210756   3.622   1.116   1.051 -0.2955 -0.9182 -0.0130
 3378SOL     OW10757   2.408   3.832   2.105  0.0571 -0.4553  0.0912
 3378SOL    HW110758   2.400   3.732   2.115  1.9288 -0.5487  1.0221
 3378SOL    HW210759   2.379   3.858   2.013 -0.1210 -1.8943 -0.2885
 3379SOL     OW10760   3.510   3.725   2.715 -0.2012  0.5828 -0.3034
 3379SOL    HW110761   3.482   3.725   2.811  1.1679 -3.2502  0.2702
 3379SOL    HW210762   3.605   3.754   2.708  0.7265 -2.0725  0.0618
 3380SOL     OW10763   2.306   4.015   2.412 -0.1530  0.6269 -0.1697
 3380SOL    HW110764   2.382   3.964   2.371 -0.4324  1.5132 -1.8595
 3380SOL    HW210765   2.318   4.017   2.512  1.0774 -0.7502 -0.2537
 3381SOL     OW10766   2.247   2.971   3.944  0.1497 -0.2429 -0.9265
 3381SOL    HW110767   2.268   2.879   3.976 -0.3904 -0.0672 -0.0242
 3381SOL    HW210768   2.187   2.966   3.864  0.0770 -0.6757 -0.8467
 3382SOL     OW10769   0.070   3.030   1.213  0.7670 -0.3876  0.2702
 3382SOL    HW110770   0.141   3.066   1.152  0.6439 -1.1577 -0.3430
 3382SOL    HW210771  -0.017   3.073   1.191  1.2036  1.4143  1.7755
 3383SOL     OW10772   4.264   4.314   1.592  0.3737  0.3891 -0.0046
 3383SOL    HW110773   4.188   4.302   1.527  1.6747  0.2746 -1.5810
 3383SOL    HW210774   4.338   4.252   1.567  0.2484 -0.9926  2.7438
 3384SOL     OW10775   0.845   1.201   0.728  0.1797  0.5205  0.3334
 3384SOL    HW110776   0.839   1.140   0.649  1.7218  0.6578  0.0769
 3384SOL    HW210777   0.931   1.252   0.724 -0.4803  1.7576  1.2339
 3385SOL     OW10778   4.723   2.023   2.468 -0.1859  0.3256  0.9157
 3385SOL    HW110779   4.700   2.120   2.478 -0.4794  0.7243 -2.4081
 3385SOL    HW210780   4.797   2.013   2.401 -2.2351 -1.8065 -1.2537
 3386SOL     OW10781   4.798   1.480   3.889 -0.1595  0.2484 -0.4326
 3386SOL    HW110782   4.857   1.472   3.970 -1.4589 -0.8253  0.4515
 3386SOL    HW210783   4.803   1.396   3.836  0.2985  0.7618 -1.2211
 3387SOL     OW10784   1.404   1.826   1.954 -0.5769  0.1364  0.0305
 3387SOL    HW110785   1.339   1.900   1.971 -0.9580 -0.3136  0.5630
 3387SOL    HW210786   1.472   1.857   1.888 -1.2533  0.6574 -0.4421
 3388SOL     OW10787   0.793   3.200   1.737  0.6299  0.4142  0.0035
 3388SOL    HW110788   0.834   3.128   1.793  1.4099  0.1904 -0.8552
 3388SOL    HW210789   0.824   3.192   1.643 -0.4002  1.0105 -0.4048
 3389SOL     OW10790   3.889   0.901   4.909 -0.0084 -0.5414 -0.5265
 3389SOL    HW110791   3.842   0.862   4.830  0.1233 -1.6399 -0.0735
 3389SOL    HW210792   3.958   0.967   4.877 -0.8723  0.0341 -1.2516
 3390SOL     OW10793   1.760   2.224   4.752 -0.0413  0.0539 -0.1844
 3390SOL    HW110794   1.727   2.218   4.846  1.4834 -1.5856  0.3153
 3390SOL    HW210795   1.701   2.284   4.699 -2.1819 -0.6531  1.2856
 3391SOL     OW10796   4.098   3.281   1.275 -0.0182  0.3073  0.0665
 3391SOL    HW110797   4.003   3.256   1.260  0.5202 -0.3124 -2.9661
 3391SOL    HW210798   4.116   3.371   1.237  0.7432  0.1262 -0.0297
 3392SOL     OW10799   4.233   0.548   2.720 -0.2518 -0.1880 -0.3360
 3392SOL    HW110800   4.211   0.501   2.806  1.4312  1.2958  0.9940
 3392SOL    HW210801   4.201   0.642   2.725  1.3857  0.4160 -0.6011
 3393SOL     OW10802   4.048   3.434   3.543  0.3126  0.1972 -0.1903
 3393SOL    HW110803   4.028   3.479   3.630 -3.1792  1.2729 -1.4191
 3393SOL    HW210804   4.051   3.502   3.470 -0.5927 -1.0525 -1.4431
 3394SOL     OW10805   0.421   2.834   3.316  0.1006  0.3268 -1.1919
 3394SOL    HW110806   0.507   2.800   3.277  0.1837 -4.2628  2.0869
 3394SOL    HW210807   0.347   2.772   3.290 -1.5036  2.0720 -0.9358
 3395SOL     OW10808   1.117   4.119   2.092 -0.4406 -0.1762 -0.3624
 3395SOL    HW110809   1.077   4.191   2.148 -1.0313 -1.8068  1.4105
 3395SOL    HW210810   1.212   4.102   2.121  0.1907  0.7830 -1.7195
 3396SOL     OW10811   1.078   0.568   0.399 -0.1823  0.6626  0.3695
 3396SOL    HW110812   1.050   0.576   0.303  0.3463 -0.0717  0.1431
 3396SOL    HW210813   1.175   0.548   0.403 -0.4142 -0.3948  1.0198
 3397SOL     OW10814   2.689   1.414   3.075 -0.5834  0.0626  0.0572
 3397SOL    HW110815   2.693   1.338   3.140 -2.3664  1.3570  1.7867
 3397SOL    HW210816   2.768   1.409   3.013  0.0391 -2.4216  0.9306
 3398SOL     OW10817   3.862   4.489   4.010  0.6170 -0.4503 -0.1730
 3398SOL    HW110818   3.919   4.521   4.085  0.0577  0.7068 -0.2136
 3398SOL    HW210819   3.913   4.498   3.924  0.1457  1.3325 -0.3084
 3399SOL     OW10820   3.218   3.844   4.886 -0.2105 -0.4905  0.4176
 3399SOL    HW110821   3.163   3.892   4.954 -0.0857  0.3284 -0.0532
 3399SOL    HW210822   3.291   3.904   4.853  0.7157 -1.4217  0.7274
 3400SOL     OW10823   2.582   0.651   1.299 -0.1083  0.0276  0.0903
 3400SOL    HW110824   2.600   0.614   1.390  0.7662 -0.4614 -0.2696
 3400SOL    HW210825   2.582   0.751   1.303  0.1459  0.0127  0.5893
 3401SOL     OW10826   4.495   2.374   3.927 -0.2812  0.2484 -0.1848
 3401SOL    HW110827   4.426   2.413   3.988 -0.1888 -0.6795  0.5392
 3401SOL    HW210828   4.473   2.278   3.909  0.5024  0.1037 -0.4202
 3402SOL     OW10829   0.932   0.555   2.336 -0.3437 -0.2940 -0.0256
 3402SOL    HW110830   0.941   0.565   2.435  1.1692  0.1644 -0.1738
 3402SOL    HW210831   0.857   0.612   2.302  0.1116  0.7462  0.6805
 3403SOL     OW10832   3.458   2.842   3.390 -0.0173  0.3725 -0.1714
 3403SOL    HW110833   3.542   2.795   3.363  0.6669  0.2223  2.0073
 3403SOL    HW210834   3.476   2.940   3.399  0.1598  0.2504  0.9976
 3404SOL     OW10835   2.012   0.078   4.197 -0.1299 -0.0742 -0.2462
 3404SOL    HW110836   1.961   0.048   4.277  0.2342  0.4037  0.1672
 3404SOL    HW210837   1.981   0.027   4.117 -1.3369  0.2846 -0.0245
 3405SOL     OW10838   0.845   1.623   1.999 -0.0532 -0.2944 -0.1678
 3405SOL    HW110839   0.918   1.589   2.058 -0.6272  0.0115  0.7350
 3405SOL    HW210840   0.768   1.652   2.055 -0.4811  0.3133 -1.0521
 3406SOL     OW10841   3.250   0.002   3.273 -0.0522  0.0351 -0.0443
 3406SOL    HW110842   3.282  -0.010   3.367 -1.9568  0.4644  0.7056
 3406SOL    HW210843   3.312  -0.045   3.210  1.4360  0.0106  1.3752
 3407SOL     OW10844   0.955   2.042   3.653  0.1136 -0.1335 -0.3090
 3407SOL    HW110845   0.991   2.034   3.746  1.8541 -1.9497 -1.0607
 3407SOL    HW210846   0.943   2.139   3.630  2.2820  0.4833  0.8798
 3408SOL     OW10847   4.889   2.763   4.700 -0.4622  0.0647  0.3629
 3408SOL    HW110848   4.856   2.802   4.786  0.1951  1.5936 -0.0479
 3408SOL    HW210849   4.854   2.816   4.623 -0.4130 -0.8148 -0.2899
 3409SOL     OW10850   1.170   3.418   0.089 -0.0573  0.1437  0.3302
 3409SOL    HW110851   1.125   3.409   0.178 -0.3771 -0.5137  0.1100
 3409SOL    HW210852   1.261   3.457   0.101 -0.3313  0.6238  0.8794
 3410SOL     OW10853   4.845   0.595   0.518 -0.3775 -0.5761  0.1539
 3410SOL    HW110854   4.940   0.565   0.524 -0.3559 -0.4759  0.3242
 3410SOL    HW210855   4.808   0.606   0.611  0.0376  1.2278  0.1418
 3411SOL     OW10856   3.713   0.865   1.046  0.1547  0.3197  0.2967
 3411SOL    HW110857   3.785   0.928   1.077 -1.2819  2.1968 -0.0164
 3411SOL    HW210858   3.626   0.913   1.043 -0.5394 -0.9333 -2.6082
 3412SOL     OW10859   2.454   2.616   2.312 -0.4255 -0.4091 -0.1048
 3412SOL    HW110860   2.429   2.702   2.357 -1.7706  0.2332 -1.9470
 3412SOL    HW210861   2.522   2.634   2.240 -1.0325 -0.7918 -0.7930
 3413SOL     OW10862   3.253   3.450   3.233  0.2189 -0.4118  0.1174
 3413SOL    HW110863   3.177   3.482   3.290 -0.7485 -1.5786 -0.4672
 3413SOL    HW210864   3.339   3.480   3.272 -0.5747  2.2912 -0.0368
 3414SOL     OW10865   2.419   0.082   1.119 -0.3730  1.0276  0.1090
 3414SOL    HW110866   2.419   0.053   1.215 -1.3638 -0.0422 -0.1903
 3414SOL    HW210867   2.473   0.166   1.110  0.0521  0.9425  1.5313
 3415SOL     OW10868   4.094   3.122   4.143 -0.1809 -0.4856 -0.8252
 3415SOL    HW110869   4.003   3.112   4.182  0.0700  0.2903 -0.0008
 3415SOL    HW210870   4.115   3.043   4.087 -1.5152 -0.4866 -1.3543
 3416SOL     OW10871   1.687   1.111   1.154  0.0199  0.0384 -0.1384
 3416SOL    HW110872   1.786   1.118   1.161  0.0780 -1.2222  0.7647
 3416SOL    HW210873   1.644   1.190   1.197  0.6225  0.2265  0.1241
 3417SOL     OW10874   2.754   1.246   4.017  0.7155  0.1048 -0.2585
 3417SOL    HW110875   2.769   1.172   3.951  1.4078 -0.2475  0.2790
 3417SOL    HW210876   2.814   1.232   4.096 -0.0865  0.5315  0.4367
 3418SOL     OW10877   4.477   3.304   3.894  0.7198 -0.5090 -0.1647
 3418SOL    HW110878   4.548   3.370   3.871  1.0936 -1.3450 -1.5066
 3418SOL    HW210879   4.518   3.217   3.921  0.3186  0.2907  3.6747
 3419SOL     OW10880   2.171   4.397   0.083  0.0599  0.2651  0.2756
 3419SOL    HW110881   2.154   4.326   0.014  0.1785 -0.5184  1.0272
 3419SOL    HW210882   2.087   4.412   0.136  0.8408 -1.6889  2.2418
 3420SOL     OW10883   4.271   3.964   1.929 -0.5000 -0.0008  0.1808
 3420SOL    HW110884   4.232   4.036   1.871 -0.0886 -0.8374 -1.1494
 3420SOL    HW210885   4.199   3.925   1.986 -1.4673 -0.8441 -1.5354
 3421SOL     OW10886   2.996   1.997   0.765  0.2936  0.0160  0.3134
 3421SOL    HW110887   2.953   1.991   0.675  0.4060  1.2928  0.1534
 3421SOL    HW210888   3.003   1.906   0.805 -1.6874 -0.3458 -0.0608
 3422SOL     OW10889   0.762   2.926   1.193 -0.1322 -0.4020 -0.0438
 3422SOL    HW110890   0.725   3.000   1.249  0.0564 -0.2286 -0.1426
 3422SOL    HW210891   0.862   2.929   1.197 -0.1307 -0.8928  0.2580
 3423SOL     OW10892   4.044   0.854   1.902  0.0725 -0.3585  0.5366
 3423SOL    HW110893   3.990   0.887   1.979 -1.2791 -0.0697 -0.4973
 3423SOL    HW210894   4.093   0.931   1.861  0.4919 -0.4446  0.8753
 3424SOL     OW10895   3.836   3.002   4.658  0.3208  0.0908 -0.1681
 3424SOL    HW110896   3.910   2.950   4.616  0.7714  0.6138 -0.0189
 3424SOL    HW210897   3.784   2.941   4.719  0.2000 -0.4452 -0.7931
 3425SOL     OW10898   4.096   0.295   4.252  0.1783 -0.3312  0.0693
 3425SOL    HW110899   4.043   0.310   4.168  0.5156  0.2162 -0.0486
 3425SOL    HW210900   4.037   0.254   4.321 -0.2173 -0.3864 -0.2979
 3426SOL     OW10901   4.129   0.779   1.576  0.5206 -0.3072  0.1270
 3426SOL    HW110902   4.167   0.724   1.650 -0.1846  2.3389  2.6736
 3426SOL    HW210903   4.161   0.873   1.586 -4.1496  1.4920  0.7599
 3427SOL     OW10904   0.546   2.153   4.351 -0.0578  0.2076 -0.1269
 3427SOL    HW110905   0.580   2.170   4.259 -1.8899 -1.9505 -1.2865
 3427SOL    HW210906   0.489   2.230   4.380  0.2071  0.7227 -0.9332
 3428SOL     OW10907   2.012   1.843   3.416  0.2231 -0.3657 -0.2055
 3428SOL    HW110908   2.060   1.810   3.335  0.3995 -3.5937  1.0645
 3428SOL    HW210909   1.915   1.857   3.394  0.6853  1.0653 -1.4777
 3429SOL     OW10910   3.527   3.082   0.716 -0.1262  0.0834 -0.5841
 3429SOL    HW110911   3.432   3.052   0.715 -0.1171 -0.0033  0.5484
 3429SOL    HW210912   3.583   3.014   0.763  0.5087  0.1247 -1.2528
 3430SOL     OW10913   0.028   3.739   4.038  0.2541 -0.0887  0.4067
 3430SOL    HW110914   0.049   3.821   3.985  1.1590  0.0785  0.9905
 3430SOL    HW210915  -0.028   3.763   4.117  1.4819  0.1932  1.2308
 3431SOL     OW10916   2.116   4.500   3.945 -0.4987 -0.4818 -0.1302
 3431SOL    HW110917   2.070   4.451   4.018 -1.2246  1.2136  0.6153
 3431SOL    HW210918   2.052   4.565   3.903  0.0305 -1.1023 -1.9918
 3432SOL     OW10919   4.679   4.784   1.299  0.3730  0.0437 -0.5288
 3432SOL    HW110920   4.626   4.848   1.243  0.2653 -1.3337 -2.0419
 3432SOL    HW210921   4.776   4.796   1.281  0.3197 -0.6657 -1.3350
 3433SOL     OW10922   0.439   4.477   2.076  0.5810  0.0033  0.4743
 3433SOL    HW110923   0.368   4.535   2.035  0.0869  0.0351  1.3634
 3433SOL    HW210924   0.442   4.390   2.027  0.5929  0.3620 -0.1830
 3434SOL     OW10925   4.249   4.095   3.307  0.2359 -0.2761  0.2627
 3434SOL    HW110926   4.274   4.016   3.363  1.3046 -0.0467  0.1284
 3434SOL    HW210927   4.170   4.072   3.250  1.7709 -1.9412 -1.2955
 3435SOL     OW10928   3.108   4.056   3.202  0.1035 -0.0770 -0.6569
 3435SOL    HW110929   3.185   4.050   3.265  0.6939  0.2118 -1.3292
 3435SOL    HW210930   3.028   4.013   3.242  0.6484 -0.4896  0.0066
 3436SOL     OW10931   1.424   3.505   4.549 -0.6173 -0.4836 -0.4315
 3436SOL    HW110932   1.465   3.440   4.613 -0.0523  0.1450 -0.1486
 3436SOL    HW210933   1.496   3.555   4.501 -1.0001  1.7435  1.1836
 3437SOL     OW10934   2.829   0.924   1.493 -0.7391 -0.3055  0.0785
 3437SOL    HW110935   2.875   0.839   1.468  0.6799  0.5472 -0.3189
 3437SOL    HW210936   2.741   0.929   1.445 -0.7014 -1.3940 -0.1353
 3438SOL     OW10937   2.176   4.672   3.333  0.7581 -0.1279  0.2232
 3438SOL    HW110938   2.130   4.616   3.264  2.7024 -0.1486 -1.1342
 3438SOL    HW210939   2.166   4.629   3.422 -0.6160 -0.8572 -0.2469
 3439SOL     OW10940   3.188   2.013   0.109 -0.5823  0.0999  0.1352
 3439SOL    HW110941   3.119   2.011   0.181  0.8273 -0.7696  1.5413
 3439SOL    HW210942   3.262   2.075   0.135  0.6370 -1.2930  0.1744
 3440SOL     OW10943   4.763   1.088   2.676 -0.0942 -0.9260  0.1652
 3440SOL    HW110944   4.698   1.037   2.733 -2.9653  1.4633 -0.7286
 3440SOL    HW210945   4.808   1.158   2.731  0.4775 -1.4830  0.4168
 3441SOL     OW10946   4.741   3.623   1.134  0.2443 -0.4283 -0.2928
 3441SOL    HW110947   4.775   3.560   1.204  0.6364 -1.1522 -1.1107
 3441SOL    HW210948   4.785   3.603   1.047 -0.6012  0.1312 -0.8670
 3442SOL     OW10949   0.156   1.489   3.030  0.3312  0.4045  0.1077
 3442SOL    HW110950   0.204   1.506   3.117 -1.2703 -0.1078  1.1309
 3442SOL    HW210951   0.090   1.415   3.043 -2.1667  2.3899 -0.6942
 3443SOL     OW10952   4.094   3.335   4.703  0.4580  0.3956  0.0068
 3443SOL    HW110953   4.005   3.365   4.671  0.6339 -0.3659 -1.2669
 3443SOL    HW210954   4.085   3.291   4.792 -0.1464  1.9589  0.7486
 3444SOL     OW10955   0.212   0.773   2.968  0.7508 -0.0068  0.1044
 3444SOL    HW110956   0.207   0.785   2.869  1.5399  1.4068  0.2008
 3444SOL    HW210957   0.120   0.779   3.007  0.6947  3.3717 -0.2148
 3445SOL     OW10958   1.625   0.056   1.442  0.0468  0.8580 -0.1521
 3445SOL    HW110959   1.613   0.107   1.357  0.0519 -0.0517 -0.7112
 3445SOL    HW210960   1.535   0.029   1.478  0.0887 -0.0183 -0.6659
 3446SOL     OW10961   0.898   0.116   2.686 -0.1582 -0.2374  0.2521
 3446SOL    HW110962   0.831   0.068   2.742 -0.3622 -1.1300 -0.7165
 3446SOL    HW210963   0.956   0.049   2.639  1.2226  0.5068  0.8194
 3447SOL     OW10964   2.314   4.629   0.762  0.9070  0.3563  0.4980
 3447SOL    HW110965   2.374   4.551   0.740 -0.3567 -0.2957 -0.8537
 3447SOL    HW210966   2.295   4.629   0.860 -0.0094 -1.8129  0.3923
 3448SOL     OW10967   0.347   2.201   2.396 -0.1885  0.6369 -0.6379
 3448SOL    HW110968   0.406   2.194   2.316  0.1949  0.3715 -0.3368
 3448SOL    HW210969   0.359   2.120   2.453  1.9581  2.2085  1.3275
 3449SOL     OW10970   1.043   1.399   4.471  0.4224  0.6863 -0.3321
 3449SOL    HW110971   1.036   1.372   4.376  0.4340 -0.4369 -0.0232
 3449SOL    HW210972   1.023   1.497   4.479  0.8086  0.8756 -1.5227
 3450SOL     OW10973   1.907   4.790   4.058  0.2335 -0.2183  0.5000
 3450SOL    HW110974   1.933   4.782   3.961 -0.3576 -0.7970  0.3790
 3450SOL    HW210975   1.884   4.699   4.093 -0.9516  0.1646  0.7784
 3451SOL     OW10976   0.490   4.235   1.976 -0.0930  0.4293  0.0185
 3451SOL    HW110977   0.440   4.166   1.923  0.9578 -1.8009  1.7588
 3451SOL    HW210978   0.588   4.217   1.971  0.1119  0.8768  1.6883
 3452SOL     OW10979   4.532   2.395   1.701  0.2925 -0.0235  0.1163
 3452SOL    HW110980   4.446   2.416   1.655 -1.4517  0.3625  3.2862
 3452SOL    HW210981   4.526   2.305   1.743  0.9720  0.4644  1.3078
 3453SOL     OW10982   4.765   4.046   3.472 -0.5119 -0.2226 -0.1357
 3453SOL    HW110983   4.787   4.058   3.376  0.4377  3.1709  0.3980
 3453SOL    HW210984   4.843   4.005   3.520 -0.9779 -1.8876 -0.7212
 3454SOL     OW10985   1.849   1.182   1.580 -0.0653 -0.1938 -0.3804
 3454SOL    HW110986   1.785   1.127   1.527  1.6074 -1.7383 -0.8971
 3454SOL    HW210987   1.914   1.122   1.626  1.0488  1.3069  0.0827
 3455SOL     OW10988   0.066   1.931   1.206  0.0527  0.5504 -0.0507
 3455SOL    HW110989   0.051   1.944   1.304  0.2707 -0.3847  0.1160
 3455SOL    HW210990   0.009   1.995   1.154  1.7389  2.7953  0.7216
 3456SOL     OW10991   2.663   3.640   3.470 -0.5597  0.4911  0.0169
 3456SOL    HW110992   2.614   3.569   3.520 -1.4388  1.4431  0.5459
 3456SOL    HW210993   2.725   3.597   3.404 -1.0716 -0.7567  0.3118
 3457SOL     OW10994   0.296   3.529   3.601 -0.2863  0.3173 -0.1729
 3457SOL    HW110995   0.301   3.436   3.563 -2.1650 -0.4767  1.3237
 3457SOL    HW210996   0.210   3.572   3.574  0.2313  1.3403 -0.2379
 3458SOL     OW10997   4.821   0.226   2.498  0.0207 -0.2751 -0.5501
 3458SOL    HW110998   4.879   0.165   2.443  2.0122  1.9357 -1.0366
 3458SOL    HW210999   4.765   0.283   2.437 -0.6560 -0.4860 -0.1405
 3459SOL     OW11000   2.913   2.366   1.310 -0.1362  0.2126 -0.6517
 3459SOL    HW111001   2.903   2.447   1.252 -0.0324 -0.0905 -1.0898
 3459SOL    HW211002   2.980   2.304   1.270  1.8254  1.1234  1.0286
 3460SOL     OW11003   0.896   1.577   3.045 -0.0083  0.0034 -0.2333
 3460SOL    HW111004   0.911   1.491   2.996 -0.3910 -0.3540  0.2575
 3460SOL    HW211005   0.882   1.651   2.979 -1.1453 -0.5822 -0.6808
 3461SOL     OW11006   1.625   0.118   2.842  0.1858  0.2556  0.4635
 3461SOL    HW111007   1.637   0.021   2.865  1.0374 -0.0375 -1.0663
 3461SOL    HW211008   1.528   0.141   2.844  0.0617 -0.3104  2.0046
 3462SOL     OW11009   2.569   3.798   0.048  0.0692 -0.0088  0.3719
 3462SOL    HW111010   2.493   3.757  -0.001  1.3068 -0.7535 -1.0001
 3462SOL    HW211011   2.583   3.750   0.135  0.4688 -1.4653 -0.4742
 3463SOL     OW11012   3.297   2.481   0.947 -0.1977 -0.1362 -0.5566
 3463SOL    HW111013   3.324   2.571   0.982 -1.0484  0.1045 -0.5080
 3463SOL    HW211014   3.357   2.456   0.871 -0.1183  0.5841 -0.7407
 3464SOL     OW11015   0.231   2.848   0.460 -0.6628 -0.3378 -0.9310
 3464SOL    HW111016   0.146   2.851   0.408  0.0196 -1.3764 -2.1811
 3464SOL    HW211017   0.298   2.910   0.418 -0.2811 -0.7842 -1.0006
 3465SOL     OW11018   0.127   3.362   0.772  0.5130 -0.1071 -0.5318
 3465SOL    HW111019   0.055   3.365   0.703 -0.3714 -1.6244  0.2792
 3465SOL    HW211020   0.168   3.271   0.775  1.6228  0.3793 -0.1028
 3466SOL     OW11021   1.600   3.312   2.290  0.0929  0.0937  0.1804
 3466SOL    HW111022   1.519   3.370   2.279  0.2707  0.5738  1.3181
 3466SOL    HW211023   1.597   3.266   2.379  0.7613 -0.3870 -0.0322
 3467SOL     OW11024   3.348   0.108   1.679 -0.0781  0.1241  0.5764
 3467SOL    HW111025   3.268   0.049   1.673 -0.3457  0.1998  2.6128
 3467SOL    HW211026   3.424   0.066   1.630 -1.4179  0.2613 -1.7691
 3468SOL     OW11027   3.096   2.078   2.178 -0.4736 -0.1892  0.3326
 3468SOL    HW111028   3.107   2.055   2.275  1.1977 -0.8290  0.0374
 3468SOL    HW211029   3.138   2.007   2.122  0.9628  1.4282 -0.7629
 3469SOL     OW11030   3.034   2.036   2.628 -0.0413  0.2888 -0.3695
 3469SOL    HW111031   3.086   2.020   2.712 -0.0872  2.1765  0.0493
 3469SOL    HW211032   3.008   2.132   2.622 -1.2546 -0.0905 -1.8682
 3470SOL     OW11033   0.579   0.600   0.817  0.1047  0.5048  0.4153
 3470SOL    HW111034   0.520   0.546   0.877  1.1028  0.0442  1.0070
 3470SOL    HW211035   0.674   0.571   0.829  0.2865  0.0366 -1.7634
 3471SOL     OW11036   0.903   0.622   2.605  0.2005 -0.3633 -0.5840
 3471SOL    HW111037   0.812   0.662   2.614  0.3517 -0.2328  0.5309
 3471SOL    HW211038   0.906   0.535   2.655  0.7645 -0.2141 -0.3537
 3472SOL     OW11039   0.279   2.857   0.721 -0.3949  0.1761 -0.0016
 3472SOL    HW111040   0.376   2.858   0.746 -0.3403 -0.8551 -0.1085
 3472SOL    HW211041   0.270   2.832   0.625 -0.7299  1.2929 -0.2670
 3473SOL     OW11042   1.266   2.967   1.366 -0.5332 -0.0623  0.1032
 3473SOL    HW111043   1.331   2.893   1.384  0.2089 -0.0161 -2.0622
 3473SOL    HW211044   1.297   3.020   1.287 -0.5014  3.2368  2.1330
 3474SOL     OW11045   4.856   4.262   0.115  0.1997  0.0972  0.1394
 3474SOL    HW111046   4.836   4.167   0.137 -1.6679  0.6151  0.8556
 3474SOL    HW211047   4.771   4.315   0.114  0.9820  1.4355 -1.9651
 3475SOL     OW11048   2.658   1.329   1.554  0.1950 -0.4325 -0.7290
 3475SOL    HW111049   2.710   1.308   1.636 -0.4481 -0.1225 -0.2311
 3475SOL    HW211050   2.582   1.264   1.545 -1.0014  0.7869  0.0908
 3476SOL     OW11051   3.994   1.475   1.924  0.5328  0.2102  0.0281
 3476SOL    HW111052   3.987   1.391   1.870  0.3648  0.0433  0.3101
 3476SOL    HW211053   3.971   1.553   1.866  0.7129  0.0659 -0.2431
 3477SOL     OW11054   4.795   4.040   0.549 -0.8372  0.1156  0.4191
 3477SOL    HW111055   4.868   3.978   0.575  0.0577  1.3339  0.9172
 3477SOL    HW211056   4.792   4.117   0.613 -2.7412 -0.0210  0.5788
 3478SOL     OW11057   3.414   0.625   0.028 -0.5070 -0.4059 -0.0780
 3478SOL    HW111058   3.369   0.614  -0.060 -0.9654 -1.0217  0.2311
 3478SOL    HW211059   3.352   0.600   0.102  1.1874 -4.3580  0.2735
 3479SOL     OW11060   2.106   3.215   2.396  0.0636  0.7463  0.6842
 3479SOL    HW111061   2.105   3.174   2.487 -1.0835  2.7540  1.6457
 3479SOL    HW211062   2.187   3.274   2.386  1.2949 -1.0392 -0.4065
 3480SOL     OW11063   0.934   0.202   3.084 -0.0830  0.1960  0.1852
 3480SOL    HW111064   0.856   0.144   3.062 -0.2392 -0.1303  1.4892
 3480SOL    HW211065   0.908   0.298   3.079 -0.0675  0.1542 -1.1044
 3481SOL     OW11066   1.918   4.754   3.028 -0.0410  0.2723 -0.4596
 3481SOL    HW111067   1.991   4.788   2.969  2.4106 -2.3421  0.8003
 3481SOL    HW211068   1.918   4.805   3.114  1.0913 -0.3719 -0.0497
 3482SOL     OW11069   3.050   2.447   0.361 -0.0053 -0.3664 -0.0858
 3482SOL    HW111070   2.978   2.437   0.292 -0.5345  0.9379  0.2446
 3482SOL    HW211071   3.008   2.471   0.448  0.8251  0.3338  0.1244
 3483SOL     OW11072   0.016   1.406   0.576  0.2867  0.0236  0.3178
 3483SOL    HW111073  -0.031   1.455   0.649  2.1934  0.2584  1.4816
 3483SOL    HW211074   0.091   1.463   0.541  0.8510 -0.9942 -0.1759
 3484SOL     OW11075   0.736   0.432   3.277  0.8565 -0.3782  0.2978
 3484SOL    HW111076   0.722   0.352   3.335  1.0239 -0.4318  0.2644
 3484SOL    HW211077   0.698   0.513   3.322  0.4162 -0.5290  0.1936
 3485SOL     OW11078   2.978   2.205   0.037  0.1161 -0.2785 -0.1522
 3485SOL    HW111079   2.992   2.187   0.135 -2.9987  0.5964  0.5785
 3485SOL    HW211080   3.006   2.124  -0.016 -0.7592 -1.9187  1.7329
 3486SOL     OW11081   3.038   3.489   2.184  0.2514 -0.2398 -0.4051
 3486SOL    HW111082   3.070   3.523   2.096  0.8560  0.4643  0.0648
 3486SOL    HW211083   2.998   3.565   2.236  0.1087 -0.5973  0.0143
 3487SOL     OW11084   4.674   4.352   3.200 -0.1235  0.5352 -0.1946
 3487SOL    HW111085   4.716   4.315   3.117 -1.4497 -0.0243 -0.6437
 3487SOL    HW211086   4.609   4.285   3.238  0.4249  0.7934  1.2818
 3488SOL     OW11087   0.388   0.723   1.658 -0.0537  0.3818  0.3551
 3488SOL    HW111088   0.480   0.714   1.695 -0.6278 -0.0632  1.7307
 3488SOL    HW211089   0.329   0.768   1.725 -1.4483 -1.6254  0.5476
 3489SOL     OW11090   0.272   0.843   1.870 -0.1928 -0.2813 -0.4637
 3489SOL    HW111091   0.219   0.923   1.842 -0.2755 -0.3981 -0.6449
 3489SOL    HW211092   0.216   0.782   1.925  0.1027  0.1678  0.3510
 3490SOL     OW11093   0.584   1.743   1.590 -0.0249  0.2464  0.0744
 3490SOL    HW111094   0.581   1.682   1.511  0.5330 -0.4686  0.5924
 3490SOL    HW211095   0.554   1.835   1.563 -0.8389 -0.2426 -0.7208
 3491SOL     OW11096   3.243   4.671   2.932  0.2650 -0.1252 -0.1817
 3491SOL    HW111097   3.176   4.703   3.000 -0.4609  0.8415 -1.2950
 3491SOL    HW211098   3.304   4.747   2.907  0.3386 -0.3815 -0.8022
 3492SOL     OW11099   0.810   4.365   0.823 -0.2206  0.4373  0.6572
 3492SOL    HW111100   0.855   4.394   0.907  2.6624 -0.1326 -0.5687
 3492SOL    HW211101   0.840   4.423   0.747 -0.7209 -0.6647 -0.4185
 3493SOL     OW11102   1.238   2.685   1.636 -0.6524 -0.3797 -0.0209
 3493SOL    HW111103   1.161   2.748   1.640 -0.5300  0.0240 -2.2373
 3493SOL    HW211104   1.222   2.607   1.696 -2.5576 -0.0627 -0.0697
 3494SOL     OW11105   4.326   2.480   2.826  0.0936 -0.2135  0.0639
 3494SOL    HW111106   4.325   2.575   2.798 -0.5974 -0.4956 -0.9038
 3494SOL    HW211107   4.414   2.459   2.871  0.4748  0.7173 -0.2355
 3495SOL     OW11108   3.245   4.750   4.018 -0.0321  0.4351  0.4861
 3495SOL    HW111109   3.293   4.766   4.104  0.9211 -0.0115  0.0433
 3495SOL    HW211110   3.170   4.816   4.010 -0.8240 -0.1891  2.1438
 3496SOL     OW11111   1.539   2.082   3.321 -0.0446  0.2122 -0.3024
 3496SOL    HW111112   1.529   2.139   3.240  2.1307  0.2388 -0.6259
 3496SOL    HW211113   1.636   2.078   3.347 -0.6791  0.5203  2.5307
 3497SOL     OW11114   0.451   1.166   3.000 -0.0494 -0.1992  0.1191
 3497SOL    HW111115   0.377   1.100   2.987 -0.2075  0.2118 -1.2257
 3497SOL    HW211116   0.452   1.231   2.924  0.6035  0.8751  1.0105
 3498SOL     OW11117   2.601   1.237   4.300  0.3122  0.4554  0.0685
 3498SOL    HW111118   2.529   1.167   4.296 -1.5980  2.3694 -1.3503
 3498SOL    HW211119   2.658   1.221   4.380 -0.5427 -2.2246  0.2384
 3499SOL     OW11120   2.004   1.392   0.343  0.2424 -0.0576  0.5529
 3499SOL    HW111121   2.046   1.337   0.415 -2.9975 -2.0088  1.1584
 3499SOL    HW211122   1.994   1.336   0.260  0.6995  1.0351 -0.2656
 3500SOL     OW11123   2.548   2.072   4.864 -0.0425  0.2934  0.5484
 3500SOL    HW111124   2.597   2.060   4.951 -0.8744 -0.8758  0.8902
 3500SOL    HW211125   2.471   2.134   4.877 -0.4135 -0.2066  0.7575
 3501SOL     OW11126   3.746   3.098   0.184  0.5688  0.2405 -0.3184
 3501SOL    HW111127   3.758   3.139   0.094 -0.5742 -0.0502 -0.6238
 3501SOL    HW211128   3.713   3.166   0.248  0.5218  0.2448 -0.3469
 3502SOL     OW11129   3.658   2.905   0.840 -0.5895 -0.5154 -0.0846
 3502SOL    HW111130   3.740   2.960   0.858 -1.3796  0.2063  1.6415
 3502SOL    HW211131   3.683   2.809   0.832  0.6746 -0.0846 -1.8672
 3503SOL     OW11132   3.487   2.999   2.080 -0.6405 -0.2228 -0.2917
 3503SOL    HW111133   3.540   2.957   2.007 -0.3570  0.6388 -0.5994
 3503SOL    HW211134   3.529   3.086   2.106 -1.1339 -0.1827  0.4145
 3504SOL     OW11135   0.860   3.861   0.754  0.0480  0.1295 -0.1509
 3504SOL    HW111136   0.889   3.885   0.847 -0.0043 -1.3232  0.2543
 3504SOL    HW211137   0.846   3.763   0.747 -1.2502  0.3689 -1.3488
 3505SOL     OW11138   4.477   1.453   0.412 -0.5491 -0.2806  0.2217
 3505SOL    HW111139   4.560   1.399   0.422 -0.3673  0.0266  0.3645
 3505SOL    HW211140   4.447   1.450   0.316  2.8180  4.2451 -1.2957
 3506SOL     OW11141   3.766   4.361   2.906  0.2906  0.0147 -0.1322
 3506SOL    HW111142   3.671   4.373   2.878  0.5218  1.3313 -0.4199
 3506SOL    HW211143   3.823   4.350   2.825  0.5260  0.3748 -0.0173
 3507SOL     OW11144   3.757   1.084   1.384 -0.1001 -0.0671  0.2809
 3507SOL    HW111145   3.809   1.012   1.430 -0.1473 -1.8258 -2.1776
 3507SOL    HW211146   3.671   1.046   1.350 -0.3230  1.2733 -0.7418
 3508SOL     OW11147   3.692   0.941   3.089 -0.4946  0.1363  0.2396
 3508SOL    HW111148   3.640   1.026   3.078  0.4024  0.9540  1.9979
 3508SOL    HW211149   3.633   0.863   3.067 -1.4493  1.1730 -1.0168
 3509SOL     OW11150   3.812   0.100   0.554 -0.0915 -0.2266  0.0269
 3509SOL    HW111151   3.817   0.028   0.624 -0.7529  0.3507  0.6966
 3509SOL    HW211152   3.882   0.169   0.572 -1.3671  0.8290  1.2155
 3510SOL     OW11153   2.765   1.733   1.802 -0.2448 -0.4124 -0.2631
 3510SOL    HW111154   2.757   1.765   1.707 -0.1018 -0.0486 -0.1575
 3510SOL    HW211155   2.687   1.766   1.855  0.6455  1.0965  0.2040
 3511SOL     OW11156   2.446   4.133   3.471 -0.3552 -0.4510  0.0776
 3511SOL    HW111157   2.374   4.178   3.524  1.4953 -0.0195  2.3735
 3511SOL    HW211158   2.415   4.043   3.442 -2.5358  0.5208 -0.7952
 3512SOL     OW11159   1.094   0.698   3.274  0.4241  0.2766 -0.1922
 3512SOL    HW111160   1.185   0.706   3.233  0.6478  0.1224  0.2624
 3512SOL    HW211161   1.079   0.776   3.336  0.1347  0.4479 -0.4734
 3513SOL     OW11162   4.710   4.703   4.585  0.1383  0.1126  0.4564
 3513SOL    HW111163   4.652   4.747   4.517 -3.1125  0.3394  3.0916
 3513SOL    HW211164   4.795   4.755   4.595 -0.3704  1.4847 -1.5886
 3514SOL     OW11165   0.964   2.762   0.340 -0.5541 -0.6047  0.1805
 3514SOL    HW111166   1.012   2.837   0.292 -0.2275 -0.4254  0.7807
 3514SOL    HW211167   1.031   2.701   0.381 -0.8259 -1.1567 -0.1864
 3515SOL     OW11168   1.033   3.342   3.929  0.4243  0.4917  0.0348
 3515SOL    HW111169   1.015   3.372   4.023 -0.7281 -1.4539  0.4840
 3515SOL    HW211170   1.129   3.318   3.920  0.3283 -0.3241  1.0407
 3516SOL     OW11171   3.652   3.708   0.219 -0.4886  0.2541 -0.1982
 3516SOL    HW111172   3.695   3.723   0.308  2.2703 -0.7879 -1.2283
 3516SOL    HW211173   3.683   3.779   0.155 -1.4093  0.2542 -0.6523
 3517SOL     OW11174   3.584   2.552   2.625 -0.0176 -0.2149  0.2286
 3517SOL    HW111175   3.622   2.464   2.654  0.1140 -1.0208 -2.1720
 3517SOL    HW211176   3.559   2.547   2.528 -0.9482  2.1012  0.2924
 3518SOL     OW11177   2.629   1.468   4.125  0.1081 -0.1782  0.2017
 3518SOL    HW111178   2.606   1.416   4.208  1.0938  0.5457  0.9441
 3518SOL    HW211179   2.693   1.415   4.070 -1.0834 -0.9715 -0.4840
 3519SOL     OW11180   0.422   4.894   0.573  0.1026 -0.2426  0.1168
 3519SOL    HW111181   0.494   4.942   0.522 -0.3842  0.0509 -0.3116
 3519SOL    HW211182   0.430   4.915   0.670  0.6140 -0.2362  0.0744
 3520SOL     OW11183   4.758   0.254   4.445  0.2392 -0.1750  0.2503
 3520SOL    HW111184   4.705   0.316   4.502  0.3374 -0.6341  0.8515
 3520SOL    HW211185   4.809   0.306   4.377  0.3047  0.3997  0.7392
 3521SOL     OW11186   4.177   4.659   2.047 -0.3978  0.2170  0.1257
 3521SOL    HW111187   4.112   4.718   1.999 -0.4545 -0.3784 -0.5444
 3521SOL    HW211188   4.267   4.667   2.005 -0.0955  0.8159  0.8672
 3522SOL     OW11189   4.808   4.832   3.424 -0.2739 -0.2067 -0.4343
 3522SOL    HW111190   4.906   4.819   3.412  0.0124 -0.1064  1.4970
 3522SOL    HW211191   4.777   4.781   3.505 -1.9258 -0.6820 -1.3200
 3523SOL     OW11192   4.844   1.858   2.624 -0.3560  0.3755  0.4307
 3523SOL    HW111193   4.774   1.813   2.679 -0.7851  2.8473  2.0572
 3523SOL    HW211194   4.802   1.930   2.568  0.7314  1.1952  0.6315
 3524SOL     OW11195   4.276   1.100   0.292 -0.5211  0.7349 -0.3508
 3524SOL    HW111196   4.191   1.136   0.253  0.9914  1.6508 -3.1385
 3524SOL    HW211197   4.308   1.024   0.235 -0.1570 -0.5563  1.5041
 3525SOL     OW11198   4.276   3.216   4.528 -0.2994 -0.1666  0.4840
 3525SOL    HW111199   4.355   3.223   4.589 -0.2374 -0.1720  0.4046
 3525SOL    HW211200   4.196   3.257   4.573 -0.4614 -0.9434  0.9147
 3526SOL     OW11201   4.625   0.427   1.152  0.5117 -0.2039 -0.7195
 3526SOL    HW111202   4.600   0.425   1.055  2.6864 -1.1064 -1.3403
 3526SOL    HW211203   4.568   0.493   1.200 -1.8122 -0.9745 -2.2372
 3527SOL     OW11204   4.799   0.646   3.588  0.0542 -0.6229  0.1591
 3527SOL    HW111205   4.883   0.597   3.565 -0.2562 -0.9165 -0.3882
 3527SOL    HW211206   4.761   0.609   3.673 -0.2853 -1.4925 -0.3512
 3528SOL     OW11207   3.057   2.882   2.920  0.2378  0.2225 -0.3011
 3528SOL    HW111208   3.082   2.877   2.823  1.3726 -1.7039  0.0440
 3528SOL    HW211209   3.105   2.960   2.962  1.5812 -0.2888 -0.8197
 3529SOL     OW11210   0.270   2.630   3.222  1.0409  0.0415 -0.0823
 3529SOL    HW111211   0.214   2.642   3.140 -0.6163 -1.6752  0.7183
 3529SOL    HW211212   0.339   2.559   3.205  1.3325  0.3716 -0.2852
 3530SOL     OW11213   3.131   3.106   4.145 -0.1629  0.1478  0.1219
 3530SOL    HW111214   3.068   3.092   4.068  2.2943  2.9904 -2.7092
 3530SOL    HW211215   3.079   3.138   4.224 -2.5664 -0.6184 -1.0172
 3531SOL     OW11216   3.814   2.532   4.138  0.6146  0.7009  0.3993
 3531SOL    HW111217   3.775   2.508   4.049 -0.7470  0.7130  0.9632
 3531SOL    HW211218   3.839   2.449   4.188  0.4894  0.6532  0.3828
 3532SOL     OW11219   3.565   2.611   4.223  0.0522  0.0625  0.2230
 3532SOL    HW111220   3.575   2.652   4.313  0.4418 -0.1186  0.2607
 3532SOL    HW211221   3.655   2.589   4.185 -0.1602 -2.7561  1.1064
 3533SOL     OW11222   3.061   4.509   2.478  0.1645 -0.1661 -0.0923
 3533SOL    HW111223   3.102   4.580   2.421 -2.9287  0.1854 -2.1355
 3533SOL    HW211224   2.988   4.548   2.533 -1.9068 -1.6859 -1.5905
 3534SOL     OW11225   2.033   4.825   2.666  0.3343  0.2327  0.6231
 3534SOL    HW111226   1.990   4.894   2.608 -1.2634 -0.6982  0.6511
 3534SOL    HW211227   2.043   4.861   2.759 -1.5114  0.0924  0.9210
 3535SOL     OW11228   4.701   3.640   0.240  0.5249  0.0038  0.1124
 3535SOL    HW111229   4.715   3.547   0.274  2.3095 -0.1936 -1.0466
 3535SOL    HW211230   4.616   3.677   0.278  0.3526 -1.6754  1.4686
 3536SOL     OW11231   3.687   4.460   4.257  0.0993 -0.8672  0.6663
 3536SOL    HW111232   3.588   4.443   4.254 -0.5776  2.5735 -1.0264
 3536SOL    HW211233   3.724   4.457   4.164  1.1274  0.0571  1.0244
 3537SOL     OW11234   2.355   4.530   4.854  0.4402 -0.1011 -0.4981
 3537SOL    HW111235   2.451   4.506   4.868  0.2676 -1.9030 -2.0284
 3537SOL    HW211236   2.298   4.479   4.918  0.3594 -0.7454 -1.0749
 3538SOL     OW11237   1.698   1.110   2.528 -0.2140  0.6007  0.3909
 3538SOL    HW111238   1.638   1.032   2.544  0.9972 -0.2562  0.9584
 3538SOL    HW211239   1.723   1.112   2.431  0.5462 -0.3598  0.5415
 3539SOL     OW11240   4.859   2.400   2.527 -0.5172 -0.3325  0.0082
 3539SOL    HW111241   4.889   2.377   2.619  0.3851 -0.9807 -0.4300
 3539SOL    HW211242   4.761   2.386   2.519 -0.7497  0.5241  1.0952
 3540SOL     OW11243   3.372   2.421   3.477  0.0724  0.5709 -0.2117
 3540SOL    HW111244   3.368   2.513   3.515 -2.4305  1.5699 -2.5890
 3540SOL    HW211245   3.326   2.419   3.388  1.3575 -2.6741 -0.9574
 3541SOL     OW11246   3.033   0.852   1.275 -0.1176 -0.3164  0.2110
 3541SOL    HW111247   3.003   0.758   1.266 -0.6373 -0.1624  0.3209
 3541SOL    HW211248   3.130   0.859   1.251 -0.2818 -0.7364 -0.6130
 3542SOL     OW11249   4.242   0.094   3.890 -0.1303 -0.3171 -0.3839
 3542SOL    HW111250   4.303   0.107   3.813  1.6222 -2.7591  0.4405
 3542SOL    HW211251   4.159   0.147   3.877  0.5557  0.1810 -3.3857
 3543SOL     OW11252   4.136   0.400   1.640 -0.2432 -0.6790  0.3850
 3543SOL    HW111253   4.217   0.440   1.597  0.1170 -0.9428  0.8114
 3543SOL    HW211254   4.055   0.453   1.614 -0.1357 -1.2223 -1.1579
 3544SOL     OW11255   4.898   1.666   0.225  0.3266 -0.2975  0.2353
 3544SOL    HW111256   4.925   1.569   0.221  1.4994 -0.0208  1.1253
 3544SOL    HW211257   4.901   1.697   0.319 -0.8167  0.4167  0.0517
 3545SOL     OW11258   2.510   2.171   0.496  0.4460  0.7444 -0.3649
 3545SOL    HW111259   2.422   2.179   0.542  0.3041  0.3334 -0.5537
 3545SOL    HW211260   2.563   2.098   0.538  0.4579  0.6003 -0.6233
 3546SOL     OW11261   2.454   4.808   3.285  0.2039  0.3915  0.2766
 3546SOL    HW111262   2.465   4.868   3.206  0.5245  0.7943  0.6196
 3546SOL    HW211263   2.369   4.757   3.277  0.7688 -0.4277 -0.8972
 3547SOL     OW11264   3.761   2.491   3.423 -0.7001  0.2845 -0.0493
 3547SOL    HW111265   3.815   2.449   3.350 -2.3157 -1.2172 -0.4500
 3547SOL    HW211266   3.705   2.421   3.467 -1.6474  1.6257  0.9621
 3548SOL     OW11267   4.716   2.727   0.807 -0.0405  0.1843 -0.0151
 3548SOL    HW111268   4.652   2.694   0.738 -0.0821 -0.6195  0.3957
 3548SOL    HW211269   4.783   2.788   0.764 -0.2525 -0.0606 -0.7051
 3549SOL     OW11270   4.768   4.776   2.716  0.1693  0.4953 -0.6162
 3549SOL    HW111271   4.742   4.700   2.656  3.2712 -0.1004 -1.4080
 3549SOL    HW211272   4.759   4.746   2.812 -1.4276  0.2092 -0.8244
 3550SOL     OW11273   4.833   1.917   1.689 -0.3646 -0.0372 -0.1509
 3550SOL    HW111274   4.879   1.986   1.633  0.2959  1.1136  1.7186
 3550SOL    HW211275   4.900   1.871   1.747 -1.3877  1.1880  2.1422
 3551SOL     OW11276   0.141   4.673   0.243  0.4472 -0.6904 -0.1438
 3551SOL    HW111277   0.099   4.651   0.155  2.0715  0.1086 -1.1848
 3551SOL    HW211278   0.189   4.592   0.278  2.2587 -0.2851 -1.5100
 3552SOL     OW11279   2.331   2.983   1.849  0.3665 -0.0032 -0.0253
 3552SOL    HW111280   2.424   2.949   1.840  0.9412  1.1559  1.1638
 3552SOL    HW211281   2.276   2.952   1.772  1.4719 -1.5318 -0.2345
 3553SOL     OW11282   3.305   3.408   3.838  0.2414  0.1188  0.2977
 3553SOL    HW111283   3.274   3.458   3.919 -1.3172  1.9213 -1.2957
 3553SOL    HW211284   3.346   3.472   3.773 -0.7848 -0.8166 -1.3555
 3554SOL     OW11285   2.114   1.893   3.796  0.3910 -0.4280 -0.3258
 3554SOL    HW111286   2.060   1.961   3.846  2.0293  0.7896 -0.1314
 3554SOL    HW211287   2.199   1.876   3.845  1.2575 -0.5022 -1.8093
 3555SOL     OW11288   0.036   2.746   2.179 -0.8527 -0.0333  0.4107
 3555SOL    HW111289   0.047   2.837   2.220 -2.2171  0.7619 -0.8989
 3555SOL    HW211290  -0.026   2.692   2.235 -0.5881  0.0857  0.8234
 3556SOL     OW11291   0.106   4.289   2.158 -0.2843 -0.2280 -0.4765
 3556SOL    HW111292   0.203   4.286   2.182 -0.7816 -2.3130  1.6811
 3556SOL    HW211293   0.092   4.242   2.072  0.6875  0.8956 -1.2858
 3557SOL     OW11294   2.952   2.270   2.802 -0.0112 -0.3542 -0.0829
 3557SOL    HW111295   2.900   2.206   2.858 -1.7336  1.1975  0.1701
 3557SOL    HW211296   2.964   2.356   2.852  2.6876 -0.5629 -0.2090
 3558SOL     OW11297   1.187   0.628   2.208 -0.3908 -0.1615  0.3434
 3558SOL    HW111298   1.111   0.631   2.273 -0.6673 -2.7521  0.2153
 3558SOL    HW211299   1.239   0.544   2.220  1.2363  0.5841 -0.9835
 3559SOL     OW11300   4.312   0.400   2.066 -0.9692  0.3611  0.2251
 3559SOL    HW111301   4.320   0.356   2.155  0.9253 -0.7371 -0.4192
 3559SOL    HW211302   4.269   0.337   2.001 -0.7812  0.5023 -0.0418
 3560SOL     OW11303   1.161   1.451   3.552 -0.4340  0.4952 -0.3810
 3560SOL    HW111304   1.242   1.487   3.505 -0.9232  2.4029  0.1344
 3560SOL    HW211305   1.182   1.361   3.590  1.8597  1.3973  0.7186
 3561SOL     OW11306   2.323   1.148   3.394  0.0599  0.5287 -0.3747
 3561SOL    HW111307   2.250   1.216   3.404 -1.3329 -1.0242  0.4264
 3561SOL    HW211308   2.315   1.080   3.466  1.8182 -0.1545 -0.7785
 3562SOL     OW11309   0.900   2.697   1.875 -0.4523  0.4444 -0.2566
 3562SOL    HW111310   0.955   2.614   1.887  1.1526  1.6692  1.4787
 3562SOL    HW211311   0.924   2.740   1.789  1.7374  1.1841  0.6617
 3563SOL     OW11312   3.357   4.664   1.443  0.1977  0.1783 -0.2991
 3563SOL    HW111313   3.287   4.621   1.500  0.0061  0.4204 -0.3498
 3563SOL    HW211314   3.447   4.627   1.468  0.1110  0.2488  0.1347
 3564SOL     OW11315   2.173   0.216   1.795 -0.2909 -0.9719  0.0466
 3564SOL    HW111316   2.199   0.282   1.866  1.4432 -1.9608  0.3814
 3564SOL    HW211317   2.074   0.205   1.794 -0.6969  1.8541 -0.2309
 3565SOL     OW11318   4.318   4.747   3.911  0.0256 -1.0614 -0.1361
 3565SOL    HW111319   4.313   4.695   3.826 -0.4858 -0.7111 -0.3259
 3565SOL    HW211320   4.274   4.836   3.898  2.5488  0.2588 -0.4138
 3566SOL     OW11321   1.537   2.994   4.719  0.0262  0.5020 -0.0162
 3566SOL    HW111322   1.503   2.930   4.789 -0.8594  0.2207 -0.6849
 3566SOL    HW211323   1.615   2.952   4.672 -0.3233  0.0560 -0.2094
 3567SOL     OW11324   1.748   3.127   3.220 -0.3700 -0.4193 -0.0208
 3567SOL    HW111325   1.741   3.117   3.121  0.4518  0.8117 -0.2343
 3567SOL    HW211326   1.804   3.054   3.258 -2.0452 -1.8661 -0.2094
 3568SOL     OW11327   1.286   0.206   1.741  0.6025  0.2082 -0.3195
 3568SOL    HW111328   1.260   0.207   1.838  2.2105 -2.2350  0.2484
 3568SOL    HW211329   1.382   0.231   1.732  0.6378 -0.2115 -1.2082
 3569SOL     OW11330   0.060   3.027   0.911  0.1413 -0.2233 -0.0745
 3569SOL    HW111331   0.007   3.055   0.831 -1.1407 -1.8550  0.1618
 3569SOL    HW211332   0.149   3.074   0.910 -0.2353  0.5294 -1.9080
 3570SOL     OW11333   1.681   1.081   3.239 -0.1160 -0.3802  0.2319
 3570SOL    HW111334   1.623   1.142   3.293 -0.2130 -0.6268  0.4118
 3570SOL    HW211335   1.773   1.078   3.278 -0.1523 -0.4630  0.3122
 3571SOL     OW11336   3.368   0.881   2.503 -0.1733  0.1077  0.0705
 3571SOL    HW111337   3.464   0.902   2.489 -0.0556 -1.1181 -1.1342
 3571SOL    HW211338   3.316   0.967   2.514  0.9236  0.8043 -0.0749
 3572SOL     OW11339   2.057   4.864   4.693  0.8306 -0.0310  0.5759
 3572SOL    HW111340   2.071   4.834   4.787  0.6351  1.1521  1.0000
 3572SOL    HW211341   2.144   4.862   4.644  1.6835  2.5556  1.7741
 3573SOL     OW11342   3.247   2.392   1.537  0.2400  0.6329 -0.0650
 3573SOL    HW111343   3.224   2.318   1.600  0.5836  1.4571  1.0594
 3573SOL    HW211344   3.221   2.366   1.444 -0.2842 -0.6039  0.4077
 3574SOL     OW11345   0.240   3.840   4.555  0.2803  0.1335  0.4035
 3574SOL    HW111346   0.331   3.843   4.515 -0.2171 -0.3061 -0.7959
 3574SOL    HW211347   0.244   3.794   4.644  1.1760 -0.1087  0.2462
 3575SOL     OW11348   1.645   0.051   0.416 -0.2404 -0.1509  0.1879
 3575SOL    HW111349   1.551   0.066   0.387  0.5418  2.3307 -1.3937
 3575SOL    HW211350   1.701   0.028   0.336  0.6120 -1.0014  1.0095
 3576SOL     OW11351   2.524   3.850   2.827  0.2521 -0.0565  0.9716
 3576SOL    HW111352   2.588   3.927   2.832 -0.2990  0.5088 -0.2732
 3576SOL    HW211353   2.574   3.765   2.844  1.4454  0.3362 -0.3675
 3577SOL     OW11354   4.503   1.325   4.893 -0.0268  0.3452  0.1827
 3577SOL    HW111355   4.492   1.422   4.914  0.9755  0.7716 -1.1682
 3577SOL    HW211356   4.512   1.273   4.979 -0.5159  1.4308  0.9127
 3578SOL     OW11357   2.365   1.630   1.090  0.0762 -0.1944  0.0781
 3578SOL    HW111358   2.450   1.619   1.142  0.6686  2.3482 -0.2401
 3578SOL    HW211359   2.386   1.648   0.994 -0.7253  1.3428  0.1538
 3579SOL     OW11360   1.134   2.284   3.100  0.0927 -0.3763  0.2148
 3579SOL    HW111361   1.098   2.282   3.194 -1.5966 -3.0796 -0.3974
 3579SOL    HW211362   1.089   2.358   3.050 -1.7386 -1.1546  0.6064
 3580SOL     OW11363   2.948   1.721   3.070  0.2000 -0.6582 -0.1443
 3580SOL    HW111364   2.872   1.718   3.005  0.1903 -0.2346 -0.1541
 3580SOL    HW211365   3.010   1.795   3.045 -0.1595 -0.0534  0.7223
 3581SOL     OW11366   4.761   4.333   3.508 -0.0527  0.3996  0.2693
 3581SOL    HW111367   4.786   4.375   3.421  0.2722  1.5141  0.8835
 3581SOL    HW211368   4.787   4.236   3.507  2.4077  1.0050  0.1007
 3582SOL     OW11369   2.107   3.141   3.196  0.1024  0.1126  0.2888
 3582SOL    HW111370   2.045   3.069   3.165  1.2317 -0.4266 -0.7927
 3582SOL    HW211371   2.053   3.217   3.233 -1.0838 -1.4416  1.8775
 3583SOL     OW11372   3.947   1.661   1.746  0.1755  0.1580 -0.9826
 3583SOL    HW111373   4.037   1.683   1.710 -0.1394  1.1717 -1.1825
 3583SOL    HW211374   3.903   1.744   1.780 -0.0385 -0.5883  0.6266
 3584SOL     OW11375   2.004   1.045   0.871 -0.2655  0.1988 -0.4356
 3584SOL    HW111376   1.946   1.098   0.809  0.4336  0.3549 -0.9619
 3584SOL    HW211377   2.097   1.041   0.835 -0.1368 -0.7719 -0.0309
 3585SOL     OW11378   3.025   1.692   2.680  0.6846  0.1997  0.1798
 3585SOL    HW111379   3.104   1.684   2.741  0.5379 -1.8444  0.1885
 3585SOL    HW211380   3.050   1.659   2.589  0.3359  1.3079 -0.3332
 3586SOL     OW11381   0.799   2.969   4.486 -0.0865  0.2954  0.2105
 3586SOL    HW111382   0.743   2.899   4.531  1.3079 -0.1651  1.2669
 3586SOL    HW211383   0.744   3.013   4.414 -1.3132 -1.1718  0.1888
 3587SOL     OW11384   0.756   3.536   2.327  0.1442  0.0465  0.6169
 3587SOL    HW111385   0.827   3.466   2.338  2.4949  2.1249 -0.5181
 3587SOL    HW211386   0.717   3.529   2.235  1.0365  0.7415  0.1667
 3588SOL     OW11387   4.360   2.870   3.054 -0.4241  0.6287  0.1067
 3588SOL    HW111388   4.300   2.826   2.987  0.2550 -0.7191  0.3468
 3588SOL    HW211389   4.456   2.847   3.032 -0.2037 -0.0046  1.6298
 3589SOL     OW11390   0.918   2.055   3.944  0.0412 -0.1409 -0.6081
 3589SOL    HW111391   0.966   2.046   4.032 -0.8755  0.4661 -0.0241
 3589SOL    HW211392   0.926   2.149   3.912 -0.4631 -0.1171 -0.6706
 3590SOL     OW11393   2.617   1.210   1.930 -0.4371  0.2038 -0.2161
 3590SOL    HW111394   2.603   1.300   1.889  1.1074  0.2197 -0.7749
 3590SOL    HW211395   2.675   1.155   1.870  1.2103 -0.0700  1.5254
 3591SOL     OW11396   2.389   0.268   0.221 -0.0384 -0.0762  0.5889
 3591SOL    HW111397   2.335   0.208   0.163  0.3652 -0.3816  0.5266
 3591SOL    HW211398   2.381   0.239   0.316 -1.3413  0.9031  0.8044
 3592SOL     OW11399   1.213   4.194   4.379 -0.0569 -0.3682 -0.2263
 3592SOL    HW111400   1.240   4.151   4.465  0.0725 -0.2263 -0.1942
 3592SOL    HW211401   1.292   4.202   4.319 -0.0454 -0.0484 -0.1748
 3593SOL     OW11402   0.437   4.116   4.664  0.1482  0.2961  0.5112
 3593SOL    HW111403   0.348   4.130   4.619 -0.8499 -1.4000  1.8039
 3593SOL    HW211404   0.430   4.146   4.759  0.5289 -1.0437  0.9769
 3594SOL     OW11405   2.507   0.931   0.855 -0.0553 -0.3825 -0.0075
 3594SOL    HW111406   2.510   1.005   0.921  0.2985  0.1052 -0.5626
 3594SOL    HW211407   2.597   0.922   0.812 -0.7866  0.5669 -1.8029
 3595SOL     OW11408   0.877   0.902   0.665 -0.5515  0.2090  0.2601
 3595SOL    HW111409   0.781   0.877   0.675 -0.6093  0.2635 -0.1708
 3595SOL    HW211410   0.889   0.961   0.586 -0.2604  0.7430  0.6957
 3596SOL     OW11411   4.522   3.480   4.539  0.7272 -0.3558 -0.0463
 3596SOL    HW111412   4.542   3.570   4.577 -1.8645 -0.4339  1.7260
 3596SOL    HW211413   4.481   3.490   4.448 -0.5356  0.3357  0.5890
 3597SOL     OW11414   4.675   0.974   0.093 -0.0635 -0.5081  0.0977
 3597SOL    HW111415   4.619   1.051   0.122  0.0389  0.0543 -1.1210
 3597SOL    HW211416   4.640   0.890   0.133 -1.2820 -0.0582  0.0074
 3598SOL     OW11417   1.980   0.113   3.879 -0.0728 -0.2546  0.6618
 3598SOL    HW111418   1.889   0.123   3.839  0.2938 -1.9376 -0.7591
 3598SOL    HW211419   1.995   0.183   3.948 -2.2476  0.3608  0.5709
 3599SOL     OW11420   4.145   3.280   0.070 -0.1915  0.1213  0.0700
 3599SOL    HW111421   4.244   3.287   0.056 -0.3956 -0.2476 -1.9367
 3599SOL    HW211422   4.124   3.199   0.123  0.4857 -1.1032 -1.4624
 3600SOL     OW11423   2.333   3.559   4.772  0.0389 -0.3956 -0.8592
 3600SOL    HW111424   2.374   3.616   4.701 -1.3411  0.2805 -1.1344
 3600SOL    HW211425   2.405   3.507   4.819  0.9765 -0.7960 -2.6720
 3601SOL     OW11426   4.348   1.145   2.233 -0.2418 -0.3270  0.9011
 3601SOL    HW111427   4.442   1.178   2.243 -0.5297  0.2675  1.7176
 3601SOL    HW211428   4.308   1.185   2.151  0.3131 -0.8314  0.3703
 3602SOL     OW11429   4.896   1.282   3.717 -0.4740  0.0509  0.0528
 3602SOL    HW111430   4.904   1.192   3.674  2.2552  0.0033  0.4992
 3602SOL    HW211431   4.958   1.346   3.674 -0.6540  1.1056  1.2741
 3603SOL     OW11432   4.893   0.922   0.636 -0.1919 -0.5109  0.5286
 3603SOL    HW111433   4.935   1.009   0.610  0.2392 -0.7985  0.2636
 3603SOL    HW211434   4.794   0.933   0.638 -0.1081  0.3031  1.5972
 3604SOL     OW11435   1.108   4.851   2.233  0.7003  0.7531 -1.0064
 3604SOL    HW111436   1.095   4.876   2.136 -0.6691 -0.8890 -1.2842
 3604SOL    HW211437   1.171   4.773   2.239 -0.8967 -0.5821 -0.8036
 3605SOL     OW11438   4.273   2.926   4.476 -0.4213  0.5043  0.0811
 3605SOL    HW111439   4.363   2.884   4.485 -0.8550 -0.5603 -0.3974
 3605SOL    HW211440   4.284   3.025   4.469  0.7678  0.3465 -0.6401
 3606SOL     OW11441   3.353   1.761   1.396  0.2297 -0.2992  0.7536
 3606SOL    HW111442   3.413   1.689   1.432  0.1135 -0.5600  0.4350
 3606SOL    HW211443   3.370   1.847   1.445 -0.5169 -0.8383  2.0041
 3607SOL     OW11444   4.362   0.108   1.745  0.5865 -0.4745 -0.1982
 3607SOL    HW111445   4.316   0.032   1.700 -0.1570 -0.4564  0.5248
 3607SOL    HW211446   4.295   0.171   1.783  1.1923 -0.2226  0.4926
 3608SOL     OW11447   4.624   3.706   4.687 -0.1421  0.0232 -0.1752
 3608SOL    HW111448   4.578   3.767   4.623  0.1353 -1.6964 -2.1348
 3608SOL    HW211449   4.720   3.731   4.696 -0.4832  1.1096  0.7105
 3609SOL     OW11450   4.621   1.421   2.790  0.0539  0.1187 -0.3791
 3609SOL    HW111451   4.708   1.373   2.783  0.7837  1.1779  0.9081
 3609SOL    HW211452   4.636   1.519   2.782 -0.5192  0.5913  2.7354
 3610SOL     OW11453   4.899   0.712   4.271  0.5212 -0.3783  0.6142
 3610SOL    HW111454   4.850   0.744   4.352  0.2307 -0.2589  0.3936
 3610SOL    HW211455   4.863   0.624   4.243  1.3795 -0.9576  1.2723
 3611SOL     OW11456   3.398   2.674   3.597 -0.3807  0.1372 -0.5432
 3611SOL    HW111457   3.404   2.742   3.670 -0.2103 -0.8869  0.4161
 3611SOL    HW211458   3.424   2.716   3.510 -1.0221  1.4878 -0.1064
 3612SOL     OW11459   1.952   2.916   0.936  0.1445 -0.6428  0.1153
 3612SOL    HW111460   2.013   2.879   0.866  2.1562  0.6966  1.0754
 3612SOL    HW211461   1.966   2.868   1.022 -1.0666 -1.1219  0.0644
 3613SOL     OW11462   2.009   2.735   1.447  0.1879  0.5150 -0.3229
 3613SOL    HW111463   1.935   2.679   1.412  1.4093 -0.7475 -0.9551
 3613SOL    HW211464   2.049   2.692   1.528  0.6428  0.8596 -0.3578
 3614SOL     OW11465   3.965   2.992   2.188 -0.2390 -0.1259  0.1700
 3614SOL    HW111466   3.874   2.961   2.215 -0.6446 -0.6865 -1.6762
 3614SOL    HW211467   3.986   3.080   2.231 -1.2057 -0.4868  1.4262
 3615SOL     OW11468   3.393   1.485   2.003  0.1458  0.4478  0.1639
 3615SOL    HW111469   3.363   1.390   2.020  1.1156  0.4021  1.9484
 3615SOL    HW211470   3.470   1.485   1.939  1.6485 -0.2636  1.8657
 3616SOL     OW11471   4.205   4.585   1.667  0.3727  0.1480  0.4402
 3616SOL    HW111472   4.111   4.618   1.656  0.0681 -0.2817  1.5553
 3616SOL    HW211473   4.207   4.486   1.655  0.6393  0.1271  0.6575
 3617SOL     OW11474   2.884   4.530   2.230  0.3607  0.1877 -0.2535
 3617SOL    HW111475   2.964   4.472   2.220  0.7911  0.8429 -0.6817
 3617SOL    HW211476   2.904   4.606   2.292 -0.8446 -1.2377  2.0256
 3618SOL     OW11477   0.064   0.123   1.877  0.0670 -0.4121  0.1498
 3618SOL    HW111478   0.028   0.119   1.784 -0.2218 -0.4162  0.2636
 3618SOL    HW211479   0.042   0.039   1.926  0.6168 -0.6028  0.0753
 3619SOL     OW11480   1.763   4.034   3.894  0.0399  0.1758  0.3742
 3619SOL    HW111481   1.800   3.962   3.836  2.4936 -0.3365  2.4197
 3619SOL    HW211482   1.774   4.123   3.849  4.1682  0.0980  0.8459
 3620SOL     OW11483   4.584   3.993   3.015 -0.1353 -0.3405 -0.7883
 3620SOL    HW111484   4.542   4.084   3.009 -0.1809 -0.1767  1.4292
 3620SOL    HW211485   4.523   3.931   3.064 -0.2752 -1.7289 -2.6078
 3621SOL     OW11486   3.435   1.691   2.697 -0.4071  0.2969 -0.1664
 3621SOL    HW111487   3.491   1.768   2.726 -2.0568  0.7929  2.0118
 3621SOL    HW211488   3.480   1.605   2.722  1.6373  0.4096 -2.9798
 3622SOL     OW11489   3.049   2.613   1.631 -0.8073  0.1939 -0.0871
 3622SOL    HW111490   2.967   2.557   1.618 -0.4038 -0.0047 -2.1567
 3622SOL    HW211491   3.130   2.560   1.607 -0.2805  1.1109 -0.3928
 3623SOL     OW11492   1.943   0.525   3.846  0.6653  0.5632 -0.0617
 3623SOL    HW111493   1.947   0.435   3.889  0.7510 -0.2982 -1.7737
 3623SOL    HW211494   2.034   0.549   3.810  0.2041  0.3625 -1.4274
 3624SOL     OW11495   3.062   2.813   4.370 -0.1736 -0.3775 -0.0021
 3624SOL    HW111496   3.057   2.786   4.466  1.0768 -2.5405 -0.4818
 3624SOL    HW211497   2.975   2.794   4.325 -0.2314 -0.9115  0.3316
 3625SOL     OW11498   3.963   1.197   3.676  0.1796  0.3039 -1.0224
 3625SOL    HW111499   4.029   1.270   3.660  0.7987  0.3070  1.1877
 3625SOL    HW211500   3.892   1.201   3.606 -0.3110  3.6350 -0.5258
 3626SOL     OW11501   0.904   2.915   2.631  0.1875 -0.0624  0.4994
 3626SOL    HW111502   0.991   2.937   2.676 -0.1562  0.4794  0.9201
 3626SOL    HW211503   0.851   2.853   2.689  1.2459 -2.2587 -0.7847
 3627SOL     OW11504   2.355   1.340   4.428 -0.2380  0.3319 -0.6395
 3627SOL    HW111505   2.434   1.304   4.379 -0.2944  0.8068 -1.0881
 3627SOL    HW211506   2.368   1.326   4.527 -0.5635 -1.4803 -0.8264
 3628SOL     OW11507   1.910   3.183   3.543 -0.8547 -0.4114  1.0551
 3628SOL    HW111508   1.938   3.088   3.548  1.9628  0.1761 -0.9477
 3628SOL    HW211509   1.968   3.239   3.603 -0.0875  0.4187 -0.4033
 3629SOL     OW11510   4.154   2.885   3.478 -0.3396  0.1614 -0.1860
 3629SOL    HW111511   4.188   2.829   3.403 -0.3278  0.1400 -0.1645
 3629SOL    HW211512   4.055   2.874   3.487 -0.2851 -0.1484  0.0602
 3630SOL     OW11513   1.429   1.561   3.091 -0.5324  0.0990 -0.1276
 3630SOL    HW111514   1.491   1.639   3.081 -0.1239 -0.2925 -0.7147
 3630SOL    HW211515   1.335   1.593   3.095 -0.4361  0.5633 -1.3030
 3631SOL     OW11516   4.750   4.085   4.560  0.6485 -0.2123 -0.0664
 3631SOL    HW111517   4.678   4.109   4.625  0.0962 -1.9797  0.0020
 3631SOL    HW211518   4.754   4.154   4.487  0.4339  1.1161  1.1287
 3632SOL     OW11519   0.612   1.661   2.131  0.5860 -0.4957  1.0573
 3632SOL    HW111520   0.610   1.580   2.189 -0.7829 -0.7817  0.6406
 3632SOL    HW211521   0.613   1.743   2.189  1.0874 -0.7928  1.4752
 3633SOL     OW11522   3.408   2.406   4.187  0.4624  0.1135 -0.5361
 3633SOL    HW111523   3.436   2.322   4.234 -3.0250  0.2099  2.1847
 3633SOL    HW211524   3.471   2.480   4.210 -0.1293 -0.2701  2.9440
 3634SOL     OW11525   4.142   3.784   0.713  0.2928 -0.0122  0.8004
 3634SOL    HW111526   4.139   3.879   0.680  1.4699 -0.1326  0.2823
 3634SOL    HW211527   4.235   3.762   0.741  0.3947 -1.4957 -0.5837
 3635SOL     OW11528   2.349   3.558   0.332  0.2846  0.2876 -0.0029
 3635SOL    HW111529   2.268   3.570   0.275  0.3537 -0.5157 -0.2713
 3635SOL    HW211530   2.428   3.602   0.288  0.2542  0.0143 -0.3275
 3636SOL     OW11531   0.077   2.593   3.419 -0.5426  0.1001 -0.1003
 3636SOL    HW111532   0.119   2.619   3.505 -2.5313  1.4125  0.5396
 3636SOL    HW211533   0.144   2.600   3.345  1.3221 -1.5041  1.3434
 3637SOL     OW11534   4.848   2.643   3.752  0.2842  0.0543 -0.2236
 3637SOL    HW111535   4.878   2.721   3.807  0.2101 -0.2074  0.1911
 3637SOL    HW211536   4.918   2.622   3.683  0.9721 -0.4078  0.5872
 3638SOL     OW11537   0.804   3.750   1.190 -0.0809 -0.0586  0.7223
 3638SOL    HW111538   0.757   3.802   1.261 -1.0204 -2.3874  1.9282
 3638SOL    HW211539   0.865   3.683   1.233 -0.2571 -1.1670 -0.6832
 3639SOL     OW11540   2.390   3.434   3.010 -0.3002  0.0157  0.7872
 3639SOL    HW111541   2.335   3.425   2.927 -0.1483  1.3823  0.5125
 3639SOL    HW211542   2.330   3.455   3.087 -0.4451 -1.2870  1.0500
 3640SOL     OW11543   1.983   1.993   0.079  0.0851  0.7408 -0.0205
 3640SOL    HW111544   2.043   1.981   0.157  1.1627  0.1471 -0.9124
 3640SOL    HW211545   1.985   2.089   0.050  0.5106  0.7498  0.0295
 3641SOL     OW11546   3.154   1.332   4.008  0.0355 -0.1794 -0.0932
 3641SOL    HW111547   3.130   1.425   3.981  0.5110  0.2735  0.9851
 3641SOL    HW211548   3.181   1.280   3.927  1.1235  1.0361 -0.5594
 3642SOL     OW11549   4.136   0.513   0.447  0.0650 -0.0969  0.2719
 3642SOL    HW111550   4.235   0.517   0.435 -0.0917  1.3173 -0.8472
 3642SOL    HW211551   4.098   0.605   0.440 -1.5259 -0.8053 -1.2755
 3643SOL     OW11552   4.215   0.437   2.468  0.4372  0.0475  0.0631
 3643SOL    HW111553   4.218   0.463   2.565  2.0655 -0.5477  0.2139
 3643SOL    HW211554   4.135   0.379   2.451  0.5862 -0.5375  1.2523
 3644SOL     OW11555   1.497   1.772   1.053  0.2973  0.1329  0.2234
 3644SOL    HW111556   1.504   1.825   1.137  2.5629  0.0611  0.1276
 3644SOL    HW211557   1.452   1.685   1.072  2.0855 -0.5168  1.7114
 3645SOL     OW11558   3.512   3.132   1.798 -0.2657  0.1551 -0.4452
 3645SOL    HW111559   3.556   3.218   1.773 -0.4945  0.4278  0.0904
 3645SOL    HW211560   3.424   3.125   1.751  1.3138 -1.4757 -3.4582
 3646SOL     OW11561   1.474   0.683   4.553  0.5259  0.1404 -0.1643
 3646SOL    HW111562   1.558   0.712   4.508  0.1779  1.6935  0.1071
 3646SOL    HW211563   1.435   0.761   4.603  0.4152 -1.2482  2.0637
 3647SOL     OW11564   2.731   3.225   3.959 -0.5103 -0.0224  0.2486
 3647SOL    HW111565   2.660   3.163   3.925 -0.0979 -0.9262  0.9636
 3647SOL    HW211566   2.688   3.304   4.003 -1.0490  1.0405 -2.0601
 3648SOL     OW11567   0.003   0.322   2.763  0.5005  0.6440 -0.3172
 3648SOL    HW111568  -0.091   0.335   2.796  0.2865  0.9572 -1.0397
 3648SOL    HW211569   0.002   0.260   2.685  0.9216  0.4904 -0.2021
 3649SOL     OW11570   4.380   2.491   4.162  0.0622 -0.6939 -0.2789
 3649SOL    HW111571   4.414   2.444   4.243  0.4315 -1.1253 -0.6768
 3649SOL    HW211572   4.341   2.579   4.188  1.5966 -0.1228  0.1816
 3650SOL     OW11573   2.294   4.591   0.492 -0.4448 -0.4612  0.7012
 3650SOL    HW111574   2.382   4.578   0.447 -0.3455 -1.0190  1.0545
 3650SOL    HW211575   2.307   4.611   0.589 -0.7288 -2.0940  1.1133
 3651SOL     OW11576   4.309   4.834   1.586  0.1827  0.3271 -0.4006
 3651SOL    HW111577   4.275   4.741   1.605  1.7253  0.0779  1.5143
 3651SOL    HW211578   4.407   4.830   1.568  0.7138  1.7364  1.7366
 3652SOL     OW11579   4.815   2.961   4.506 -0.4242  0.2420  0.0917
 3652SOL    HW111580   4.772   2.901   4.439 -0.3218  1.8886 -1.5234
 3652SOL    HW211581   4.896   3.003   4.466 -0.5229  1.4965  1.1323
 3653SOL     OW11582   3.334   0.799   4.037  0.1972 -0.4055 -0.2741
 3653SOL    HW111583   3.334   0.740   3.956  0.4821  1.3418 -1.6017
 3653SOL    HW211584   3.287   0.885   4.016  0.3114  0.1094  1.4203
 3654SOL     OW11585   3.031   3.263   4.343 -0.4909 -0.5589 -0.2729
 3654SOL    HW111586   2.972   3.194   4.384 -0.7161  0.4640  1.1886
 3654SOL    HW211587   2.984   3.307   4.267 -0.8677 -1.0603 -0.3332
 3655SOL     OW11588   3.522   0.560   3.966 -0.1820 -0.6412  0.1884
 3655SOL    HW111589   3.451   0.576   3.897 -1.0626  0.7594  1.3359
 3655SOL    HW211590   3.601   0.517   3.924 -1.2272 -1.0989 -1.3941
 3656SOL     OW11591   3.375   0.377   2.929  0.0651  0.1908 -0.0513
 3656SOL    HW111592   3.430   0.387   2.846 -1.0190 -0.5052 -0.8861
 3656SOL    HW211593   3.279   0.399   2.909 -0.4224 -1.1001  0.7158
 3657SOL     OW11594   4.684   0.223   1.947 -0.0856 -0.2076 -0.5689
 3657SOL    HW111595   4.783   0.214   1.955 -0.0210  0.4309 -0.6088
 3657SOL    HW211596   4.643   0.133   1.938  0.4366 -0.5159  0.0615
 3658SOL     OW11597   0.107   1.322   1.754 -0.6910 -0.2084  0.2474
 3658SOL    HW111598   0.040   1.386   1.794  1.1715  1.6131  0.6325
 3658SOL    HW211599   0.187   1.316   1.814 -0.0723 -1.5922 -0.6644
 3659SOL     OW11600   2.970   4.630   1.702  0.3009  0.2630  0.3690
 3659SOL    HW111601   2.967   4.602   1.798  2.1714  0.7420  0.5994
 3659SOL    HW211602   2.877   4.633   1.666 -0.3837 -0.7440  1.9137
 3660SOL     OW11603   0.985   4.185   0.705 -0.5546 -0.1728  0.4939
 3660SOL    HW111604   0.964   4.103   0.758 -0.8596  0.0046  0.6545
 3660SOL    HW211605   0.930   4.262   0.739 -0.0358  0.1735  0.5518
 3661SOL     OW11606   2.947   0.559   1.282 -0.4234  0.3851  0.0135
 3661SOL    HW111607   2.855   0.545   1.246 -0.3531 -0.5521  0.1721
 3661SOL    HW211608   3.007   0.487   1.249  0.2108  0.8672  0.0860
 3662SOL     OW11609   1.810   3.902   3.391 -0.5673 -0.1783 -0.2590
 3662SOL    HW111610   1.752   3.940   3.463 -0.6011  0.0915 -0.4284
 3662SOL    HW211611   1.805   3.802   3.394 -1.1820 -0.1517 -0.3947
 3663SOL     OW11612   1.537   0.952   1.000 -0.0593 -0.6323  0.0881
 3663SOL    HW111613   1.454   1.003   1.022 -0.1666 -1.0619  0.6849
 3663SOL    HW211614   1.612   0.985   1.057 -0.2026 -1.3468  0.7048
 3664SOL     OW11615   2.816   2.528   2.228  0.3337  0.0656  0.5255
 3664SOL    HW111616   2.813   2.597   2.301 -2.2311 -1.2493  1.8127
 3664SOL    HW211617   2.781   2.441   2.263 -2.3133 -0.3058 -2.5513
 3665SOL     OW11618   2.908   3.600   0.005  0.3293 -0.5170 -0.1837
 3665SOL    HW111619   2.920   3.549  -0.080 -0.0243  2.1526 -1.9471
 3665SOL    HW211620   2.856   3.684  -0.013  1.3888  0.8084  2.4045
 3666SOL     OW11621   1.448   4.243   2.161 -0.4082  0.4838  0.0750
 3666SOL    HW111622   1.468   4.280   2.251 -0.9468 -0.5166  0.6277
 3666SOL    HW211623   1.441   4.317   2.094  2.2907  1.1015  0.3678
 3667SOL     OW11624   3.086   1.824   4.523  0.8421 -0.3022 -0.1210
 3667SOL    HW111625   3.068   1.890   4.450  0.8137  0.9616  0.9925
 3667SOL    HW211626   3.084   1.870   4.612 -1.4171 -2.1937  0.9295
 3668SOL     OW11627   2.037   1.908   1.928  0.1130 -0.4177  0.2104
 3668SOL    HW111628   2.073   1.933   1.838 -1.7903  1.7056 -0.0505
 3668SOL    HW211629   2.092   1.951   1.999  1.4771 -1.9070  0.1183
 3669SOL     OW11630   4.751   3.437   1.815  0.6083  0.8805  0.1440
 3669SOL    HW111631   4.811   3.450   1.894 -0.5417 -2.1853  1.6704
 3669SOL    HW211632   4.681   3.509   1.815  1.1116  1.4121  1.4268
 3670SOL     OW11633   3.483   1.146   3.950 -0.4162 -0.3904  0.2297
 3670SOL    HW111634   3.446   1.155   3.857  1.7867 -1.6320 -0.8484
 3670SOL    HW211635   3.432   1.206   4.012 -0.8801  1.8245 -2.0893
 3671SOL     OW11636   3.336   0.603   4.242 -0.6391 -0.4022 -0.3076
 3671SOL    HW111637   3.359   0.653   4.158 -0.0349 -1.7185 -0.9561
 3671SOL    HW211638   3.252   0.551   4.228 -0.5366 -0.6256 -0.0986
 3672SOL     OW11639   3.439   3.213   4.612 -0.4650 -0.2863 -0.4357
 3672SOL    HW111640   3.395   3.265   4.685 -0.4395 -0.9413  0.0547
 3672SOL    HW211641   3.409   3.118   4.616 -1.2199 -0.1337 -1.8945
 3673SOL     OW11642   0.022   4.291   4.768  0.3910  0.5794 -0.1692
 3673SOL    HW111643   0.006   4.286   4.867  1.4335  0.9296  0.0210
 3673SOL    HW211644  -0.036   4.362   4.729 -0.1796  0.3008  0.1512
 3674SOL     OW11645   2.894   0.238   0.768  0.0364 -0.0561 -1.0853
 3674SOL    HW111646   2.824   0.282   0.710 -1.0702 -0.1523  0.1247
 3674SOL    HW211647   2.862   0.146   0.794  0.3815  0.0834 -0.1270
 3675SOL     OW11648   1.319   0.545   1.503 -0.1220  0.3922 -0.1910
 3675SOL    HW111649   1.248   0.596   1.456 -1.8322  0.2368  2.0680
 3675SOL    HW211650   1.315   0.564   1.601  2.2377 -0.5135  0.1521
 3676SOL     OW11651   3.025   2.495   2.933  0.1688 -0.8442  0.1845
 3676SOL    HW111652   3.054   2.540   3.018  0.0799 -0.1079 -0.1654
 3676SOL    HW211653   3.087   2.521   2.859 -1.1026  0.4523 -0.4941
 3677SOL     OW11654   1.681   4.044   3.612 -0.3248 -0.0199 -0.1377
 3677SOL    HW111655   1.682   3.953   3.654 -1.3299 -0.3584 -0.7919
 3677SOL    HW211656   1.735   4.107   3.667  0.2432 -0.9738  0.4222
 3678SOL     OW11657   1.241   2.045   3.439  0.9161  0.2583  0.1611
 3678SOL    HW111658   1.188   1.961   3.447 -0.4798  1.1027  0.1393
 3678SOL    HW211659   1.324   2.027   3.387  0.1837 -0.9165 -0.6475
 3679SOL     OW11660   4.836   2.449   3.152  0.1957  0.1018 -0.0850
 3679SOL    HW111661   4.797   2.509   3.222  1.7848  0.4832  0.5046
 3679SOL    HW211662   4.811   2.484   3.062 -1.0056  0.1916  0.2580
 3680SOL     OW11663   1.931   0.923   1.311 -0.2051 -0.1960  0.0937
 3680SOL    HW111664   1.928   0.830   1.274 -0.0612  0.1640 -0.8424
 3680SOL    HW211665   1.838   0.959   1.319 -0.3091 -0.6440  1.0689
 3681SOL     OW11666   1.121   2.328   4.174 -0.6325 -0.1017  0.0235
 3681SOL    HW111667   1.028   2.347   4.205 -0.5979  1.2370 -0.6319
 3681SOL    HW211668   1.155   2.246   4.219 -2.5172 -1.2367 -0.5229
 3682SOL     OW11669   2.832   3.010   3.069 -1.2996  0.4185  0.1089
 3682SOL    HW111670   2.919   2.976   3.033 -1.9706 -1.1185 -0.1179
 3682SOL    HW211671   2.761   2.941   3.057 -2.1696  0.9389  1.8848
 3683SOL     OW11672   3.891   0.104   0.285 -0.7557  0.0780  0.0311
 3683SOL    HW111673   3.852   0.072   0.199 -1.7571  1.0367  0.1027
 3683SOL    HW211674   3.820   0.105   0.356 -0.3403  0.8242  0.4503
 3684SOL     OW11675   4.558   0.063   4.308  0.3021 -0.0675  0.1725
 3684SOL    HW111676   4.463   0.058   4.277 -0.0635 -1.2533  1.3844
 3684SOL    HW211677   4.565   0.133   4.380  0.2242 -0.3490  0.4569
 3685SOL     OW11678   3.399   4.068   0.486 -0.2051  0.0698 -0.6127
 3685SOL    HW111679   3.451   4.114   0.558  0.3781  1.0477 -1.6195
 3685SOL    HW211680   3.462   4.034   0.416 -0.8652  0.9795 -1.6869
 3686SOL     OW11681   4.800   1.749   3.293  0.3433  0.3373  0.2733
 3686SOL    HW111682   4.703   1.772   3.284 -0.1516 -1.8003 -0.4179
 3686SOL    HW211683   4.852   1.832   3.314 -1.6821  1.4350  1.2229
 3687SOL     OW11684   4.370   4.008   0.291  0.4023 -0.0195 -0.8182
 3687SOL    HW111685   4.334   4.084   0.345  1.1720 -0.7094  0.7413
 3687SOL    HW211686   4.317   3.999   0.207 -1.5574  0.4466  0.2933
 3688SOL     OW11687   0.206   4.006   3.391 -0.2626  0.3055 -0.0656
 3688SOL    HW111688   0.255   3.925   3.362  0.0387  0.6197 -0.4410
 3688SOL    HW211689   0.185   4.063   3.312  0.6552  1.2210  0.3247
 3689SOL     OW11690   3.363   3.673   3.834  0.3512 -0.0599 -0.4514
 3689SOL    HW111691   3.461   3.665   3.816  0.3031 -0.0463 -0.7270
 3689SOL    HW211692   3.349   3.707   3.927  0.5783 -3.0144  0.7802
 3690SOL     OW11693   2.086   4.262   3.820 -0.0072 -0.4081  0.8922
 3690SOL    HW111694   2.113   4.188   3.882 -0.8639 -0.0269  1.7427
 3690SOL    HW211695   2.128   4.348   3.851  2.1575 -0.7274 -0.9032
 3691SOL     OW11696   0.089   1.049   1.796  0.0207  0.4515  0.0792
 3691SOL    HW111697   0.079   1.148   1.787  0.0051  0.4833  0.4398
 3691SOL    HW211698   0.052   1.004   1.714  0.4297  0.7623 -0.2763
 3692SOL     OW11699   3.707   2.936   1.916 -0.2979  0.2787 -0.1019
 3692SOL    HW111700   3.794   2.978   1.941  1.4695 -1.7148 -2.3915
 3692SOL    HW211701   3.653   3.000   1.862  0.5645  0.9561 -0.1714
 3693SOL     OW11702   2.029   1.503   3.289 -0.3522 -0.2761 -0.2138
 3693SOL    HW111703   2.092   1.578   3.307  0.1616 -0.9870  1.0573
 3693SOL    HW211704   2.006   1.501   3.192 -0.0735  1.2772 -0.3334
 3694SOL     OW11705   1.742   3.760   4.183 -0.3088  0.2518  0.3114
 3694SOL    HW111706   1.776   3.809   4.264  0.1976  1.6013 -0.6714
 3694SOL    HW211707   1.808   3.690   4.157  1.2342  2.0147 -0.8263
 3695SOL     OW11708   4.015   1.387   0.451  0.0018 -0.5123  0.3394
 3695SOL    HW111709   4.012   1.301   0.400  1.6476 -0.1072 -0.5089
 3695SOL    HW211710   3.931   1.439   0.434  0.0902 -0.8186 -1.1839
 3696SOL     OW11711   4.112   1.069   0.930  0.0570 -0.4756  0.0236
 3696SOL    HW111712   4.193   1.128   0.927  0.2968 -0.8343 -0.5834
 3696SOL    HW211713   4.076   1.057   0.838 -1.0419  0.1625  0.3565
 3697SOL     OW11714   0.886   3.262   3.716  0.2324 -0.3433  0.2022
 3697SOL    HW111715   0.803   3.227   3.760  0.2101  0.7102  1.0506
 3697SOL    HW211716   0.942   3.309   3.784 -1.3010  4.1840 -1.2868
 3698SOL     OW11717   2.547   4.627   4.568  0.5315  0.0326  0.4246
 3698SOL    HW111718   2.572   4.545   4.517  2.6197  0.1185  1.1813
 3698SOL    HW211719   2.532   4.703   4.505 -1.2456 -0.8441 -0.2730
 3699SOL     OW11720   4.849   2.780   0.399  0.0387  0.2610  0.5442
 3699SOL    HW111721   4.753   2.803   0.382 -0.4876  0.3190  3.1882
 3699SOL    HW211722   4.870   2.692   0.358 -1.1079  0.3083 -0.1702
 3700SOL     OW11723   3.666   0.560   1.964 -0.4405 -0.5047  0.1033
 3700SOL    HW111724   3.753   0.601   1.934 -1.1694  0.1962 -1.1109
 3700SOL    HW211725   3.678   0.461   1.975  0.1052 -0.6610 -1.6501
 3701SOL     OW11726   3.018   1.125   1.452 -0.0971 -0.3612  0.6785
 3701SOL    HW111727   2.945   1.057   1.453 -0.5243  0.0344 -0.8795
 3701SOL    HW211728   3.107   1.079   1.447 -0.3901 -0.8076 -0.5464
 3702SOL     OW11729   2.113   4.223   4.809 -0.4201 -0.6713 -1.0214
 3702SOL    HW111730   2.108   4.132   4.849  0.3499 -0.5386 -0.6011
 3702SOL    HW211731   2.030   4.241   4.756  0.1188 -2.2906 -2.5545
 3703SOL     OW11732   3.444   1.812   1.115  0.8207  0.0842  0.0176
 3703SOL    HW111733   3.398   1.762   1.042 -0.9596  0.2661  0.9519
 3703SOL    HW211734   3.430   1.764   1.202  1.7597  0.5698  0.4559
 3704SOL     OW11735   4.042   4.152   1.263 -0.2378 -0.1273 -0.4555
 3704SOL    HW111736   4.044   4.147   1.164  0.4525  0.9942 -0.5118
 3704SOL    HW211737   3.961   4.204   1.293 -0.3717 -0.3464 -0.4349
 3705SOL     OW11738   3.446   0.752   1.909 -0.3898  0.3589 -0.3075
 3705SOL    HW111739   3.535   0.713   1.932  0.6113  2.6492  0.0309
 3705SOL    HW211740   3.442   0.771   1.811 -0.6414 -0.0038 -0.3716
 3706SOL     OW11741   4.601   2.662   2.797 -0.1591  0.7492  0.0341
 3706SOL    HW111742   4.571   2.700   2.884  0.5361  0.0742  0.5777
 3706SOL    HW211743   4.539   2.692   2.725 -1.0217  0.9306  0.8302
 3707SOL     OW11744   1.073   3.686   1.376  0.1911 -0.5893 -0.0978
 3707SOL    HW111745   0.997   3.636   1.419  0.4293 -1.0568 -0.2112
 3707SOL    HW211746   1.159   3.640   1.399  0.6703  1.1555  1.8503
 3708SOL     OW11747   4.879   2.631   1.233 -0.3441 -1.0041 -0.3188
 3708SOL    HW111748   4.788   2.589   1.239 -1.3690  1.3289  2.0933
 3708SOL    HW211749   4.878   2.702   1.162 -1.5189  1.3062  1.8848
 3709SOL     OW11750   1.466   4.363   1.663  0.3786 -0.0938 -0.4728
 3709SOL    HW111751   1.482   4.461   1.653 -0.6781  0.1728  0.2801
 3709SOL    HW211752   1.386   4.336   1.608  0.2887 -0.4095 -0.1950
 3710SOL     OW11753   0.748   4.790   3.381 -0.4262 -0.8181 -0.1798
 3710SOL    HW111754   0.737   4.881   3.423 -0.3023 -1.2444  0.8056
 3710SOL    HW211755   0.844   4.777   3.355 -0.3946 -0.7715 -0.0866
 3711SOL     OW11756   4.386   3.713   0.793  0.1944  0.7438  0.2190
 3711SOL    HW111757   4.478   3.753   0.803  0.4402  0.6835 -1.4960
 3711SOL    HW211758   4.376   3.636   0.856  2.0496 -0.4628 -0.8680
 3712SOL     OW11759   2.632   2.790   3.208  0.3249 -0.7109 -0.3026
 3712SOL    HW111760   2.693   2.842   3.268  0.3255  1.1959 -1.8569
 3712SOL    HW211761   2.685   2.752   3.131 -0.1676 -0.4589 -0.7715
 3713SOL     OW11762   2.442   2.236   0.841  0.1292 -0.2081  0.4803
 3713SOL    HW111763   2.460   2.284   0.755 -1.3941 -1.0973 -0.3730
 3713SOL    HW211764   2.360   2.275   0.884 -0.2483 -1.0394  0.5315
 3714SOL     OW11765   1.408   4.041   0.104  0.2407  0.1861 -0.4054
 3714SOL    HW111766   1.442   4.050   0.198 -1.1254  0.5585  0.0812
 3714SOL    HW211767   1.308   4.052   0.104  0.1690 -0.3183 -1.8390
 3715SOL     OW11768   3.767   1.159   0.878  0.0532  0.0714  0.4630
 3715SOL    HW111769   3.702   1.217   0.831  0.3548  0.4019  0.4493
 3715SOL    HW211770   3.783   1.076   0.824 -0.6716 -0.2126  0.6743
 3716SOL     OW11771   2.483   3.846   3.356  0.0388  0.0640 -0.7217
 3716SOL    HW111772   2.440   3.843   3.265  1.2351 -1.7874 -1.2718
 3716SOL    HW211773   2.544   3.768   3.367  2.1928  1.8277  0.5883
 3717SOL     OW11774   4.753   3.129   1.538  0.5083 -0.0327  0.0963
 3717SOL    HW111775   4.810   3.049   1.520  1.8220  1.0579 -0.8696
 3717SOL    HW211776   4.812   3.207   1.559 -0.4316  1.6768 -3.0193
 3718SOL     OW11777   3.935   0.073   1.972  0.0629 -0.2097  0.2558
 3718SOL    HW111778   3.936  -0.021   1.937  0.0213 -0.8468  1.8794
 3718SOL    HW211779   3.847   0.116   1.951  0.1226 -0.4954 -0.5924
 3719SOL     OW11780   2.260   2.221   2.288  0.4249 -0.1162  0.0963
 3719SOL    HW111781   2.342   2.202   2.342 -0.1693 -2.2113  0.3480
 3719SOL    HW211782   2.274   2.305   2.235  2.5898 -0.2305  0.3932
 3720SOL     OW11783   3.846   3.214   2.462  0.5575 -0.7897  0.0643
 3720SOL    HW111784   3.771   3.241   2.523 -0.3494 -0.1149 -1.2989
 3720SOL    HW211785   3.930   3.202   2.515 -0.6058 -2.0543  1.7105
 3721SOL     OW11786   1.429   2.654   2.906  0.1137  0.1577 -0.5121
 3721SOL    HW111787   1.404   2.584   2.972  0.1339  1.1480  0.5736
 3721SOL    HW211788   1.394   2.743   2.936  1.6349  0.9328 -0.9204
   4.91192   4.91192   4.91192
