;
;	File 'topol.top' was generated
;	By user: unknown (1000)
;	On host: DESKTOP-RCELDJA
;	At date: Sun Dec 15 18:37:19 2024
;
;	This is a standalone topology file
;
;	Created by:
;	                    :-) GROMACS - gmx pdb2gmx, 2024.2 (-:
;	
;	Executable:   /usr/local/gromacs/bin/gmx
;	Data prefix:  /usr/local/gromacs
;	Working dir:  /home/austinl/repos/gromacs/proj-1
;	Command line:
;	  gmx pdb2gmx -f ethane_solv.pdb -o ethane_solv_processed.pdb -p topol.top -i posre.itp
;	Force field was read from the standard GROMACS share directory.
;

; Include forcefield parameters

; This force field uses a format that requires Gromacs 3.1.4 or later.
;
; References for the OPLS-AA force field: 
;
; W. L. Jorgensen, D. S. Maxwell, and J. Tirado-Rives,
; J. Am. Chem. Soc. 118, 11225-11236 (1996).
; W. L. Jorgensen and N. A. McDonald, Theochem 424, 145-155 (1998).
; W. L. Jorgensen and N. A. McDonald, J. Phys. Chem. B 102, 8049-8059 (1998).
; R. C. Rizzo and W. L. Jorgensen, J. Am. Chem. Soc. 121, 4827-4836 (1999).
; M. L. Price, D. Ostrovsky, and W. L. Jorgensen, J. Comp. Chem. (2001).
; E. K. Watkins and W. L. Jorgensen, J. Phys. Chem. A 105, 4118-4125 (2001).
; G. A. Kaminski, R.A. Friesner, J.Tirado-Rives and W.L. Jorgensen, J. Phys. Chem. B 105, 6474 (2001).
;

[ defaults ]
; nbfunc	comb-rule	gen-pairs	fudgeLJ	fudgeQQ
1		3		yes		0.5	0.5

[ atomtypes ]
; full atom descriptions are available in ffoplsaa.atp
; name  bond_type    mass    charge   ptype          sigma      epsilon
 opls_001   C	6      12.01100     0.500       A    3.75000e-01  4.39320e-01 ; SIG
 opls_002   O	8      15.99940    -0.500       A    2.96000e-01  8.78640e-01 ; SIG
 opls_003   N	7      14.00670    -0.570       A    3.25000e-01  7.11280e-01 ; SIG
 opls_004   H	1       1.00800     0.370       A    0.00000e+00  0.00000e+00
 opls_005   C2	6      14.02700     0.200       A    3.80000e-01  4.93712e-01 ; SIG
 opls_006   CH	6      13.01900     0.200       A    3.80000e-01  3.34720e-01 ; SIG
 opls_007   C3	6      15.03500     0.000       A    3.91000e-01  6.69440e-01 ; SIG
 opls_008   CH	6      13.01900     0.000       A    3.85000e-01  3.34720e-01 ; SIG
 opls_009   C2	7      14.02700     0.000       A    3.90500e-01  4.93712e-01 ; SIG
 opls_010   C3	6      15.03500     0.000       A    3.90500e-01  7.32200e-01 ; SIG
 opls_011   CD	6      12.01100     0.000       A    3.75000e-01  4.60240e-01 ; SIG
 opls_012   N	7      14.00670    -0.850       A    3.25000e-01  7.11280e-01 ; SIG
 opls_013   H	1       1.00800     0.425       A    0.00000e+00  0.00000e+00
 opls_014   CH	6      13.01900     0.285       A    3.80000e-01  3.34720e-01 ; SIG
 opls_015   C2	6      14.02700     0.285       A    3.80000e-01  4.93712e-01 ; SIG
 opls_016   C2	6      14.02700    -0.100       A    3.90500e-01  4.93712e-01 ; SIG
 opls_017   C	6      12.01100     0.700       A    3.75000e-01  4.39320e-01 ; SIG
 opls_018   O2	8      15.99940    -0.800       A    2.96000e-01  8.78640e-01 ; SIG
 opls_019   C2	6      14.02700     0.310       A    3.90500e-01  4.93712e-01 ; SIG
 opls_020   N3	7      14.00670    -0.300       A    3.25000e-01  7.11280e-01 ; SIG
 opls_021   H3	1       1.00800     0.330       A    0.00000e+00  0.00000e+00
 opls_022   C2	6      14.02700     0.265       A    3.90500e-01  4.93712e-01 ; SIG
 opls_023   OH	8      15.99940    -0.700       A    3.07000e-01  7.11280e-01 ; SIG
 opls_024   HO	1       1.00800     0.435       A    0.00000e+00  0.00000e+00
 opls_025   CH	6      13.01900     0.265       A    3.85000e-01  3.34720e-01 ; SIG
 opls_026   C	6      12.01100     0.265       A    3.75000e-01  4.60240e-01 ; SIG
 opls_027   C2	6      14.02700     0.310       A    3.80000e-01  4.93712e-01 ; SIG
 opls_028   C2	6      14.02700     0.100       A    3.80000e-01  4.93712e-01 ; SIG
 opls_029   CH	6      13.01900     0.310       A    3.80000e-01  3.34720e-01 ; SIG
 opls_030   CH	6      13.01900     0.100       A    3.80000e-01  3.34720e-01 ; SIG
 opls_031   C2	6      14.02700     0.180       A    3.90500e-01  4.93712e-01 ; SIG
 opls_032   SH	16     32.06000    -0.450       A    3.55000e-01  1.04600e+00 ; SIG
 opls_033   HS	1      1.00800     0.270       A    0.00000e+00  0.00000e+00
 opls_034   C2	6     14.02700     0.235       A    3.80000e-01  4.93712e-01 ; SIG
 opls_035   S	16      32.06000    -0.470       A    3.55000e-01  1.04600e+00 ; SIG
 opls_036   C3	6     15.03500     0.235       A    3.80000e-01  7.11280e-01 ; SIG
 opls_037   C2	6     14.02700     0.300       A    3.80000e-01  4.93712e-01 ; SIG
 opls_038   S	16      32.06000    -0.300       A    3.55000e-01  1.04600e+00 ; SIG
 opls_039   C3	6     15.03500     0.200       A    3.80000e-01  7.11280e-01 ; SIG
 opls_040   NA	7     14.00670    -0.570       A    3.25000e-01  7.11280e-01 ; SIG
 opls_041   H	1       1.00800     0.420       A    0.00000e+00  0.00000e+00
 opls_042   NB	7     14.00670    -0.490       A    3.25000e-01  7.11280e-01 ; SIG
 opls_043   CP	6     12.01100     0.410       A    3.75000e-01  6.06680e-01 ; SIG
 opls_044   CF	6     12.01100     0.100       A    3.75000e-01  6.06680e-01 ; SIG
 opls_045   CC	6     12.01100     0.130       A    3.75000e-01  6.06680e-01 ; SIG
 opls_046   NA	7     14.00670    -0.540       A    3.25000e-01  7.11280e-01 ; SIG
 opls_047   H	1       1.00800     0.460       A    0.00000e+00  0.00000e+00
 opls_048   CP	6     12.01100     0.500       A    3.75000e-01  6.06680e-01 ; SIG
 opls_049   CG	6     12.01100     0.330       A    3.75000e-01  6.06680e-01 ; SIG
 opls_050   CB	6     12.01100    -0.055       A    3.75000e-01  6.06680e-01 ; SIG
 opls_051   N2	7     14.00670    -0.800       A    3.25000e-01  7.11280e-01 ; SIG
 opls_052   H3	1      1.00800     0.460       A    0.00000e+00  0.00000e+00
 opls_053   CA	6     12.01100     0.640       A    2.25000e-01  2.09200e-01 ; SIG
 opls_054   N2	7     14.00670    -0.700       A    3.25000e-01  7.11280e-01 ; SIG
 opls_055   H3	1      1.00800     0.440       A    0.00000e+00  0.00000e+00
 opls_056   C2	6     14.02700     0.310       A    3.90500e-01  4.93712e-01 ; SIG
 opls_057   C2	6     14.02700     0.070       A    3.90500e-01  4.93712e-01 ; SIG
 opls_058   C	6      12.01100     0.550       A    3.75000e-01  4.39320e-01 ; SIG
 opls_059   O	8      15.99940    -0.450       A    2.96000e-01  8.78640e-01 ; SIG
 opls_060   CH	6     13.01900     0.250       A    3.80000e-01  3.34720e-01 ; SIG
 opls_061   C2	6     14.02700     0.250       A    3.80000e-01  4.93712e-01 ; SIG
 opls_062   OS	8     15.99940    -0.400       A    3.00000e-01  7.11280e-01 ; SIG
 opls_063   C3	6     15.03500     0.250       A    3.80000e-01  7.11280e-01 ; SIG
 opls_064   CT	6     12.01100     0.200       A    3.80000e-01  2.09200e-01 ; SIG
 opls_065   C3	6     15.03500     0.000       A    3.96000e-01  6.06680e-01 ; SIG
 opls_066   C4	6     16.04300     0.000       A    3.73000e-01  1.23010e+00 ; SIG
 opls_067   C3	6     15.03500     0.000       A    3.77500e-01  8.66088e-01 ; SIG
 opls_068   C3	6     15.03500     0.000       A    3.90500e-01  7.32200e-01 ; SIG
 opls_069   C3	6     15.03500     0.000       A    3.91000e-01  6.69440e-01 ; SIG
 opls_070   C3	6     15.03500     0.000       A    3.96000e-01  6.06680e-01 ; SIG
 opls_071   C2	6     14.02700     0.000       A    3.90500e-01  4.93712e-01 ; SIG
 opls_072   C9	6     14.02700     0.000       A    3.85000e-01  5.85760e-01 ; SIG
 opls_073   CH	6     13.01900     0.000       A    3.85000e-01  3.34720e-01 ; SIG
 opls_074   C8	6     13.01900     0.000       A    3.80000e-01  4.81160e-01 ; SIG
 opls_075   CD	6     13.01900     0.000       A    3.75000e-01  4.60240e-01 ; SIG
 opls_076   CT	6     12.01100     0.000       A    3.80000e-01  2.09200e-01 ; SIG
 opls_077   C7	6     12.01100     0.000       A    3.75000e-01  4.39320e-01 ; SIG
 opls_078   OH	8     15.99940    -0.700       A    3.07000e-01  7.11280e-01 ; SIG
 opls_079   HO	1      1.00800     0.435       A    0.00000e+00  0.00000e+00
 opls_080   C3	6     15.03500     0.265       A    3.77500e-01  8.66088e-01 ; SIG
 opls_081   C2	6     14.02700     0.265       A    3.90500e-01  4.93712e-01 ; SIG
 opls_082   SH	16     32.06000    -0.470       A    3.70000e-01  1.04600e+00 ; SIG
 opls_083   SH	16     32.06000    -0.450       A    3.55000e-01  1.04600e+00 ; SIG
 opls_084   S	16      32.06000    -0.470       A    3.55000e-01  1.04600e+00 ; SIG
 opls_085   S	16      32.06000    -0.300       A    3.55000e-01  1.04600e+00 ; SIG
 opls_086   HS	1      1.00800     0.235       A    0.00000e+00  0.00000e+00
 opls_087   HS	1      1.00800     0.270       A    0.00000e+00  0.00000e+00
 opls_088   C3	6     15.03500     0.180       A    3.77500e-01  8.66088e-01 ; SIG
 opls_089   C2	6     14.02700     0.180       A    3.90500e-01  4.93712e-01 ; SIG
 opls_090   C3	6     15.03500     0.235       A    3.80000e-01  7.11280e-01 ; SIG
 opls_091   C2	6     14.02700     0.235       A    3.80000e-01  4.93712e-01 ; SIG
 opls_092   C3	6     15.03500     0.300       A    3.80000e-01  7.11280e-01 ; SIG
 opls_093   C2	6     14.02700     0.300       A    3.80000e-01  4.93712e-01 ; SIG
 opls_094   N	7      14.00670    -0.430       A    3.20000e-01  7.11280e-01 ; SIG
 opls_095   C	6      12.01100     0.280       A    3.65000e-01  6.27600e-01 ; SIG
 opls_096   C3	6     15.03500     0.150       A    3.77500e-01  8.66088e-01 ; SIG
 opls_097   Ar  18   39.94800     0.000       A    3.40100e-01  9.78638e-01 ; SIG
 opls_098   Kr	36   83.79800     0.000       A    3.93500e-01  1.81167e+00 ; SIG
 opls_099   Xe	54    131.29300     0.000       A    0.00000e+00  0.00000e+00
 opls_101   N3	7     14.00670    -0.400       A    3.25000e-01  7.11280e-01 ; SIG
 opls_102   N3	7     14.00670    -0.300       A    3.25000e-01  7.11280e-01 ; SIG
 opls_103   N3	7     14.00670     0.000       A    3.25000e-01  7.11280e-01 ; SIG
 opls_104   H3	1      1.00800     0.350       A    0.00000e+00  0.00000e+00
 opls_105   H3	1      1.00800     0.330       A    0.00000e+00  0.00000e+00
 opls_106   C3	6     15.03500     0.310       A    3.77500e-01  8.66088e-01 ; SIG
 opls_107   C3	6     15.03500     0.250       A    3.96000e-01  6.06680e-01 ; SIG
 opls_108   OS	8     15.99940    -0.500       A    3.00000e-01  7.11280e-01 ; SIG
 opls_109   C3	6     15.03500     0.250       A    3.80000e-01  7.11280e-01 ; SIG
 opls_110   C2	6     14.02700     0.250       A    3.80000e-01  4.93712e-01 ; SIG
 opls_111   OW	8     15.99940    -0.834       A    3.15061e-01  6.36386e-01
 opls_112   HW	1      1.00800     0.417       A    0.00000e+00  0.00000e+00
 opls_113   OW	8     15.99940     0.000       A    3.15365e-01  6.48520e-01
 opls_114   HW	1      1.00800     0.520       A    0.00000e+00  0.00000e+00
 opls_115   MW	0      0.00000    -1.040       D    0.00000e+00  0.00000e+00
 opls_116   OW	8     15.99940    -0.820       A    3.16557e-01  6.50194e-01
 opls_117   HW	1      1.00800     0.410       A    0.00000e+00  0.00000e+00
 opls_118   OW	8     15.99940     0.000       A    3.12000e-01  6.69440e-01
 opls_118e  OW  8     15.99940     0.000       A    3.09700e-01  7.44752e-01 ; J. Chem. Phys. 120 (2004) 6085-6093
 opls_119   HW	1      1.00800     0.000       A    0.00000e+00  0.00000e+00
 opls_120   OL	0      0.00000     0.000       D    0.00000e+00  0.00000e+00
 opls_122   CT	6     12.01100     0.248       A    3.80000e-01  2.09200e-01
 opls_123   Cl	17     35.45300    -0.062       A    3.47000e-01  1.11295e+00
 opls_124   S	16      32.06000     0.139       A    3.56000e-01  1.65268e+00
 opls_125   O2	8     15.99940    -0.459       A    2.93000e-01  1.17152e+00
 opls_126   C3	6     15.03500     0.160       A    3.81000e-01  6.69440e-01
 opls_127   NT	7     14.00670    -1.020       A    3.42000e-01  7.11280e-01
 opls_128   H	1       1.00800     0.340       A    0.00000e+00  0.00000e+00
 opls_129   Ne	10     20.17970     0.000       A    2.78000e-01  2.88696e-01
 opls_130   He	2      4.00260     0.000       A    2.55600e-01  8.36800e-02
 opls_131   C	6      12.01100     0.500       A    3.80000e-01  4.81160e-01
 opls_132   C3	6     15.03500     0.285       A    3.80000e-01  7.11280e-01
 opls_135   CT	6     12.01100    -0.180       A    3.50000e-01  2.76144e-01
 opls_136   CT	6     12.01100    -0.120       A    3.50000e-01  2.76144e-01
 opls_137   CT	6     12.01100    -0.060       A    3.50000e-01  2.76144e-01
 opls_138   CT	6     12.01100    -0.240       A    3.50000e-01  2.76144e-01
 opls_139   CT	6     12.01100     0.000       A    3.50000e-01  2.76144e-01
 opls_140   HC	1      1.00800     0.060       A    2.50000e-01  1.25520e-01
 opls_141   CM	6     12.01100     0.000       A    3.55000e-01  3.17984e-01
 opls_142   CM	6     12.01100    -0.115       A    3.55000e-01  3.17984e-01
 opls_143   CM	6     12.01100    -0.230       A    3.55000e-01  3.17984e-01
 opls_144   HC	1      1.00800     0.115       A    2.42000e-01  1.25520e-01
 opls_145   CA	6     12.01100    -0.115       A    3.55000e-01  2.92880e-01
 opls_145B  C!	6     12.01100    -0.115       A    3.55000e-01  2.92880e-01
 opls_146   HA	1      1.00800     0.115       A    2.42000e-01  1.25520e-01
 opls_147   CA	6     12.01100     0.000       A    3.55000e-01  2.92880e-01
 opls_148   CT	6     12.01100    -0.065       A    3.50000e-01  2.76144e-01
 opls_149   CT	6     12.01100    -0.005       A    3.50000e-01  2.76144e-01
 opls_150   C=	6     12.01100    -0.115       A    3.55000e-01  3.17984e-01
 opls_151   Cl	17     35.45300    -0.200       A    3.40000e-01  1.25520e+00
 opls_152   CT	6     12.01100    -0.006       A    3.50000e-01  2.76144e-01
 opls_153   HC	1      1.00800     0.103       A    2.50000e-01  1.25520e-01
 opls_154   OH	  8     15.99940    -0.683       A    3.12000e-01  7.11280e-01
 opls_155   HO	  1      1.00800     0.418       A    0.00000e+00  0.00000e+00
 opls_156   HC	  1      1.00800     0.040       A    2.50000e-01  1.25520e-01
 opls_157   CT	  6     12.01100     0.145       A    3.50000e-01  2.76144e-01
 opls_158   CT	  6     12.01100     0.205       A    3.50000e-01  2.76144e-01
 opls_159   CT	  6     12.01100     0.265       A    3.50000e-01  2.76144e-01
 opls_160   CT_4  6   12.01100     0.126       A    3.50000e-01  2.76144e-01
 opls_161   CT	  6     12.01100     0.532       A    3.25000e-01  2.59408e-01
 opls_162   OH	  8     15.99940    -0.635       A    3.07000e-01  7.11280e-01
 opls_163   HO	  1      1.00800     0.429       A    0.00000e+00  0.00000e+00
 opls_164   F     9	 18.99840    -0.206       A    2.94000e-01  2.55224e-01
 opls_165   HC    1   1.00800     0.083       A    2.50000e-01  1.25520e-01
 opls_166   CA    6  12.01100     0.150       A    3.55000e-01  2.92880e-01
 opls_167   OH   8  15.99940    -0.585       A    3.07000e-01  7.11280e-01
 opls_168   HO  1    1.00800     0.435       A    0.00000e+00  0.00000e+00
 opls_169   OH  8   15.99940    -0.700       A    3.07000e-01  7.11280e-01
 opls_170   HO  1    1.00800     0.435       A    0.00000e+00  0.00000e+00
 opls_171   OH  8   15.99940    -0.730       A    3.07000e-01  7.11280e-01
 opls_172   HO  1    1.00800     0.465       A    0.00000e+00  0.00000e+00
 opls_173   CT  6   12.01100     0.145       A    3.50000e-01  2.76144e-01
 opls_174   CT  6   12.01100     0.205       A    3.50000e-01  2.76144e-01
 opls_175   CT  6   12.01100     0.265       A    3.50000e-01  2.76144e-01
 opls_176   HC  1    1.00800     0.060       A    2.50000e-01  1.25520e-01
 opls_178   C=   6  12.01100     0.000       A    3.55000e-01  3.17984e-01
 opls_179   OS   8  15.99940    -0.285       A    2.90000e-01  5.85760e-01
 opls_180   OS   8  15.99940    -0.400       A    2.90000e-01  5.85760e-01
 opls_181   CT   6  12.01100     0.110       A    3.50000e-01  2.76144e-01
 opls_182   CT   6  12.01100     0.140       A    3.50000e-01  2.76144e-01
 opls_183   CT   6  12.01100     0.170       A    3.50000e-01  2.76144e-01
 opls_184   CT   6  12.01100     0.200       A    3.50000e-01  2.76144e-01
 opls_185   HC   1   1.00800     0.030       A    2.50000e-01  1.25520e-01
 opls_186   OS   8  15.99940    -0.400       A    2.90000e-01  5.85760e-01
 opls_187   OH   8  15.99940    -0.700       A    3.07000e-01  7.11280e-01
 opls_188   HO   1   1.00800     0.435       A    0.00000e+00  0.00000e+00
 opls_189   CO   6  12.01100     0.200       A    3.50000e-01  2.76144e-01
 opls_190   HC   1   1.00800     0.100       A    2.50000e-01  1.25520e-01
 opls_191   CO   6  12.01100     0.265       A    3.50000e-01  2.76144e-01
 opls_192   HC   1   1.00800     0.100       A    2.50000e-01  1.25520e-01
 opls_193   CO   6  12.01100     0.300       A    3.50000e-01  2.76144e-01
 opls_194   HC   1   1.00800     0.100       A    2.50000e-01  1.25520e-01
 opls_195   CO   6  12.01100     0.365       A    3.50000e-01  2.76144e-01
 opls_196   HC   1   1.00800     0.100       A    2.50000e-01  1.25520e-01
 opls_197   CO   6  12.01100     0.400       A    3.50000e-01  2.76144e-01
 opls_198   CO   6  12.01100     0.465       A    3.50000e-01  2.76144e-01
 opls_199   CA   6  12.01100     0.085       A    3.55000e-01  2.92880e-01
 opls_200   SH   16  32.06000    -0.335       A    3.60000e-01  1.77820e+00
 opls_201   SH   16 32.06000    -0.470       A    3.70000e-01  1.04600e+00
 opls_202   S   16   32.06000    -0.335       A    3.60000e-01  1.48532e+00
 opls_203   S   16   32.06000    -0.217       A    3.55000e-01  1.04600e+00
 opls_204   HS  1    1.00800     0.155       A    0.00000e+00  0.00000e+00
 opls_205   HS  1    1.00800     0.235       A    0.00000e+00  0.00000e+00
 opls_206   CT	6     12.01100     0.060       A    3.50000e-01  2.76144e-01
 opls_207   CT	6     12.01100     0.120       A    3.50000e-01  2.76144e-01
 opls_208   CT	6     12.01100     0.180       A    3.50000e-01  2.76144e-01
 opls_209   CT	6     12.01100    -0.013       A    3.50000e-01  2.76144e-01
 opls_210   CT	6     12.01100     0.048       A    3.50000e-01  2.76144e-01
 opls_211   CT	6     12.01100     0.107       A    3.50000e-01  2.76144e-01
 opls_212   CT	6     12.01100     0.168       A    3.50000e-01  2.76144e-01
 opls_213   CT 	6     12.01100     0.037       A    3.50000e-01  2.76144e-01
 opls_214   CT 	6     12.01100     0.098       A    3.50000e-01  2.76144e-01
 opls_215   CT 	6     12.01100     0.158       A    3.50000e-01  2.76144e-01
 opls_216   CT  6     12.01100     0.217       A    3.50000e-01  2.76144e-01
 opls_217   CT  6     12.01100     0.000       A    3.50000e-01  2.76144e-01
 opls_218   CT  6     12.01100     0.200       A    3.50000e-01  2.76144e-01
 opls_219   CT  6     12.01100     0.260       A    3.50000e-01  2.76144e-01
 opls_220   CT  6     12.01100     0.320       A    3.50000e-01  2.76144e-01
 opls_221   CA  6     12.01100    -0.055       A    3.55000e-01  2.92880e-01
 opls_222   S   16    32.06000    -0.320       A    3.55000e-01  1.04600e+00
 opls_223   CT   6   12.01100     0.080       A    3.50000e-01  2.76144e-01
 opls_223B  CT_2 6  12.01100     0.080       A    3.50000e-01  2.76144e-01
 opls_224   CT   6  12.01100     0.140       A    3.50000e-01  2.76144e-01
 opls_224B  CT_2 6  12.01100     0.140       A    3.50000e-01  2.76144e-01
 opls_225   CT   6  12.01100     0.200       A    3.50000e-01  2.76144e-01
 opls_225B  CT_2 6  12.01100     0.200       A    3.50000e-01  2.76144e-01
 opls_226   Cl   17  35.45300    -0.120       A    3.40000e-01  1.25520e+00
 opls_227   CM   6  12.01100     0.005       A    3.55000e-01  3.17984e-01
 opls_228   CA   6  12.01100     0.102       A    3.55000e-01  2.92880e-01
 opls_229   CT   6  12.01100     0.140       A    3.50000e-01  2.76144e-01
 opls_230   CT   6  12.01100     0.200       A    3.50000e-01  2.76144e-01
 opls_231   C    6  12.01100     0.700       A    3.75000e-01  4.39320e-01
 opls_232   C_2  6  12.01100     0.565       A    3.75000e-01  4.39320e-01
 opls_233   C_2  6  12.01100     0.585       A    3.75000e-01  4.39320e-01
 opls_234   C    6  12.01100     0.615       A    3.75000e-01  4.39320e-01
 opls_235   C    6  12.01100     0.500       A    3.75000e-01  4.39320e-01
 opls_236   O    8  15.99940    -0.500       A    2.96000e-01  8.78640e-01
 opls_237   N   7   14.00670    -0.760       A    3.25000e-01  7.11280e-01
 opls_238   N   7   14.00670    -0.500       A    3.25000e-01  7.11280e-01
 opls_239   N   7   14.00670    -0.140       A    3.25000e-01  7.11280e-01
 opls_240   H   1    1.00800     0.380       A    0.00000e+00  0.00000e+00
 opls_241   H   1    1.00800     0.300       A    0.00000e+00  0.00000e+00
 opls_242   CT  6   12.01100     0.020       A    3.50000e-01  2.76144e-01
 opls_243   CT  6   12.01100    -0.110       A    3.50000e-01  2.76144e-01
 opls_244   CT  6   12.01100     0.080       A    3.50000e-01  2.76144e-01
 opls_245   CT_3 6  12.01100    -0.050       A    3.50000e-01  2.76144e-01
 opls_246   CT_2 6  12.01100     0.010       A    3.50000e-01  2.76144e-01
 opls_247   C    6  12.01100     0.142       A    3.75000e-01  4.39320e-01
 opls_248   O   8   15.99940    -0.390       A    2.96000e-01  8.78640e-01
 opls_249   N   7   14.00670    -0.542       A    3.25000e-01  7.11280e-01
 opls_250   H   1    1.00800     0.333       A    0.00000e+00  0.00000e+00
 opls_251   N   7   14.00670    -0.490       A    3.25000e-01  7.11280e-01
 opls_252   C   6   12.01100     0.420       A    3.75000e-01  4.39320e-01
 opls_253   O   8   15.99940    -0.420       A    2.96000e-01  8.78640e-01
 opls_254   H   1    1.00800     0.370       A    0.00000e+00  0.00000e+00
 opls_255   HC  1    1.00800     0.060       A    2.50000e-01  8.36800e-02
 opls_256   CT  6   12.01100    -0.120       A    3.50000e-01  2.76144e-01
 opls_257   CT  6   12.01100    -0.060       A    3.50000e-01  2.76144e-01
 opls_258   CT  6   12.01100     0.000       A    3.50000e-01  2.76144e-01
 opls_259   CT  6   12.01100     0.060       A    3.50000e-01  2.76144e-01
 opls_260   CA  6   12.01100     0.035       A    3.55000e-01  2.92880e-01
 opls_261   CZ  6   12.01100     0.395       A    3.65000e-01  6.27600e-01
 opls_262   NZ   7  14.00670    -0.430       A    3.20000e-01  7.11280e-01
 opls_263   CA   6  12.01100     0.180       A    3.55000e-01  2.92880e-01
 opls_264   Cl  17   35.45300    -0.180       A    3.40000e-01  1.25520e+00
 opls_265   N    7  14.00670    -0.385       A    3.25000e-01  7.11280e-01
 opls_266   CA   6  12.01100     0.085       A    3.55000e-01  2.92880e-01
 opls_267   C    6  12.01100     0.520       A    3.75000e-01  4.39320e-01
 opls_268   OH   8  15.99940    -0.530       A    3.00000e-01  7.11280e-01
 opls_269   O_3 8   15.99940    -0.440       A    2.96000e-01  8.78640e-01
 opls_270   HO   1   1.00800     0.450       A    0.00000e+00  0.00000e+00
 opls_271   C_3  6  12.01100     0.700       A    3.75000e-01  4.39320e-01
 opls_272   O2   8  15.99940    -0.800       A    2.96000e-01  8.78640e-01
 opls_273   CT  6   12.01100    -0.280       A    3.50000e-01  2.76144e-01
 opls_274   CT  6   12.01100    -0.220       A    3.50000e-01  2.76144e-01
 opls_275   CT  6   12.01100    -0.160       A    3.50000e-01  2.76144e-01
 opls_276   CT  6   12.01100    -0.100       A    3.50000e-01  2.76144e-01
 opls_277   C_2  6  12.01100     0.450       A    3.75000e-01  4.39320e-01
 opls_278   O_2  8  15.99940    -0.450       A    2.96000e-01  8.78640e-01
 opls_279   HC   1   1.00800     0.000       A    2.42000e-01  6.27600e-02
 opls_280   C_2  6  12.01100     0.470       A    3.75000e-01  4.39320e-01
 opls_281   O_2  8  15.99940    -0.470       A    2.96000e-01  8.78640e-01
 opls_282   HC   1   1.00800     0.060       A    2.42000e-01  6.27600e-02
 opls_283   CT_2  6 12.01100     0.040       A    3.50000e-01  2.76144e-01
 opls_284   CT_2  6 12.01100    -0.020       A    3.50000e-01  2.76144e-01
 opls_285   CT_2 6  12.01100    -0.090       A    3.50000e-01  2.76144e-01
 opls_286   N3   7  14.00670    -0.400       A    3.25000e-01  7.11280e-01
 opls_287   N3   7  14.00670    -0.300       A    3.25000e-01  7.11280e-01
 opls_288   N3   7  14.00670     0.000       A    3.25000e-01  7.11280e-01
 opls_289   H3    1  1.00800     0.350       A    0.00000e+00  0.00000e+00
 opls_290   H3  1    1.00800     0.330       A    0.00000e+00  0.00000e+00
 opls_291   CT  6   12.01100     0.130       A    3.50000e-01  2.76144e-01
 opls_292   CT   6  12.01100     0.190       A    3.50000e-01  2.76144e-01
 opls_292B  CT_2 6  12.01100     0.190       A    3.50000e-01  2.76144e-01
 opls_293   CT   6  12.01100     0.250       A    3.50000e-01  2.76144e-01
 opls_293B  CT_2 6  12.01100     0.250       A    3.50000e-01  2.76144e-01
 opls_294   CT   6  12.01100     0.310       A    3.50000e-01  2.76144e-01
 opls_295   CT_2 6  12.01100     0.120       A    3.50000e-01  2.76144e-01
 opls_296   CT_3 6  12.01100     0.170       A    3.50000e-01  2.76144e-01
 opls_297   CT   6  12.01100     0.110       A    3.50000e-01  2.76144e-01
 opls_298   CT_2  6 12.01100     0.090       A    3.50000e-01  2.76144e-01
 opls_299   CT_2  6 12.01100     0.150       A    3.50000e-01  2.76144e-01
 opls_300   N2   7  14.00670    -0.800       A    3.25000e-01  7.11280e-01
 opls_301   H3   1   1.00800     0.460       A    0.00000e+00  0.00000e+00
 opls_302   CA   6  12.01100     0.640       A    2.25000e-01  2.09200e-01
 opls_303   N2   7  14.00670    -0.700       A    3.25000e-01  7.11280e-01
 opls_304   H3   1   1.00800     0.440       A    0.00000e+00  0.00000e+00
 opls_305   CT   6  12.01100     0.200       A    3.50000e-01  2.76144e-01
 opls_306   CT   6  12.01100    -0.110       A    3.50000e-01  2.76144e-01
 opls_307   CT   6  12.01100     0.190       A    3.50000e-01  2.76144e-01
 opls_308   CT   6  12.01100    -0.050       A    3.50000e-01  2.76144e-01
 opls_309   N3   7  14.00670    -0.200       A    3.25000e-01  7.11280e-01
 opls_310   H3   1   1.00800     0.310       A    0.00000e+00  0.00000e+00
 opls_311   NC  7   14.00670    -0.460       A    3.25000e-01  7.11280e-01
 opls_312   CA  6   12.01100     0.360       A    3.50000e-01  3.34720e-01
 opls_313   N2  7   14.00670    -0.850       A    3.25000e-01  7.11280e-01
 opls_314   H   1    1.00800     0.370       A    0.00000e+00  0.00000e+00
 opls_315   CA  6   12.01100    -0.150       A    3.50000e-01  3.34720e-01
 opls_316   HA   1   1.00800     0.100       A    2.50000e-01  2.09200e-01
 opls_317   CA  6   12.01100    -0.040       A    3.50000e-01  3.34720e-01
 opls_318   HA  1    1.00800     0.100       A    2.50000e-01  2.09200e-01
 opls_319   NA  7   14.00670    -0.600       A    3.25000e-01  7.11280e-01
 opls_319B  N*  7   14.00670    -0.600       A    3.25000e-01  7.11280e-01
 opls_320   C    6  12.01100     0.500       A    3.75000e-01  4.39320e-01
 opls_321   NA   7  14.00670    -0.510       A    3.25000e-01  7.11280e-01
 opls_322   C    6  12.01100     0.450       A    3.75000e-01  4.39320e-01
 opls_323   CM   6  12.01100    -0.070       A    3.50000e-01  3.34720e-01
 opls_324   CM   6  12.01100     0.080       A    3.50000e-01  3.34720e-01
 opls_325   H    1   1.00800     0.410       A    0.00000e+00  0.00000e+00
 opls_326   O   8   15.99940    -0.400       A    2.96000e-01  8.78640e-01
 opls_327   H   1    1.00800     0.360       A    0.00000e+00  0.00000e+00
 opls_328   O   8   15.99940    -0.420       A    2.96000e-01  8.78640e-01
 opls_329   HC  1    1.00800     0.100       A    2.50000e-01  2.09200e-01
 opls_330   HC   1   1.00800     0.100       A    2.50000e-01  2.09200e-01
 opls_331   CT  6   12.01100    -0.140       A    3.50000e-01  3.34720e-01
 opls_332   HC  1    1.00800     0.080       A    2.50000e-01  2.09200e-01
 opls_333   NA  7   14.00670    -0.560       A    3.25000e-01  7.11280e-01
 opls_333B  N*  7   14.00670    -0.560       A    3.25000e-01  7.11280e-01
 opls_334   C   6   12.01100     0.550       A    3.75000e-01  4.39320e-01
 opls_335   NC  7   14.00670    -0.540       A    3.25000e-01  7.11280e-01
 opls_336   CA  6   12.01100     0.460       A    3.50000e-01  3.34720e-01
 opls_337   CM  6   12.01100    -0.060       A    3.50000e-01  3.34720e-01
 opls_338   CM  6   12.01100     0.100       A    3.50000e-01  3.34720e-01
 opls_339   H   1    1.00800     0.380       A    0.00000e+00  0.00000e+00
 opls_340   O   8   15.99940    -0.480       A    2.96000e-01  8.78640e-01
 opls_341   N2  7   14.00670    -0.790       A    3.25000e-01  7.11280e-01
 opls_342   H   1    1.00800     0.385       A    0.00000e+00  0.00000e+00
 opls_343   H   1    1.00800     0.355       A    0.00000e+00  0.00000e+00
 opls_344   HC  1    1.00800     0.100       A    2.50000e-01  2.09200e-01
 opls_345   H4  1    1.00800     0.100       A    2.50000e-01  2.09200e-01
 opls_346   NC   7  14.00670    -0.530       A    3.25000e-01  7.11280e-01
 opls_347   CQ   6  12.01100     0.220       A    3.50000e-01  3.34720e-01
 opls_348   NC   7  14.00670    -0.550       A    3.25000e-01  7.11280e-01
 opls_349   CB   6  12.01100     0.380       A    3.50000e-01  3.34720e-01
 opls_350   CB   6  12.01100     0.150       A    3.50000e-01  3.34720e-01
 opls_351   CA   6  12.01100     0.440       A    3.50000e-01  3.34720e-01
 opls_352   NB   7  14.00670    -0.490       A    3.25000e-01  7.11280e-01
 opls_353   CK   6  12.01100     0.200       A    3.50000e-01  3.34720e-01
 opls_354   NA   7  14.00670    -0.500       A    3.25000e-01  7.11280e-01
 opls_354B  N*   7  14.00670    -0.500       A    3.25000e-01  7.11280e-01
 opls_355   H5   1   1.00800     0.200       A    2.50000e-01  2.09200e-01
 opls_356   N2   7  14.00670    -0.810       A    3.25000e-01  7.11280e-01
 opls_357   H    1   1.00800     0.385       A    0.00000e+00  0.00000e+00
 opls_358   H    1   1.00800     0.355       A    0.00000e+00  0.00000e+00
 opls_359   H5   1   1.00800     0.200       A    2.50000e-01  2.09200e-01
 opls_360   H    1   1.00800     0.350       A    0.00000e+00  0.00000e+00
 opls_361   NA   7  14.00670    -0.560       A    3.25000e-01  7.11280e-01
 opls_362   CA   6  12.01100     0.460       A    3.50000e-01  3.34720e-01
 opls_363   NC  7   14.00670    -0.510       A    3.25000e-01  7.11280e-01
 opls_364   CB  6   12.01100     0.340       A    3.50000e-01  3.34720e-01
 opls_365   CB  6   12.01100     0.120       A    3.50000e-01  3.34720e-01
 opls_366   C   6   12.01100     0.520       A    3.75000e-01  4.39320e-01
 opls_367   H   1    1.00800     0.380       A    0.00000e+00  0.00000e+00
 opls_368   N2  7   14.00670    -0.800       A    3.25000e-01  7.11280e-01
 opls_369   H   1    1.00800     0.400       A    0.00000e+00  0.00000e+00
 opls_370   O   8   15.99940    -0.510       A    2.96000e-01  8.78640e-01
 opls_371   CT  6   12.01100    -0.010       A    3.50000e-01  3.34720e-01
 opls_372   HC  1    1.00800     0.120       A    2.50000e-01  2.09200e-01
 opls_373   CT  6   12.01100    -0.010       A    3.50000e-01  3.34720e-01
 opls_374   HC  1    1.00800     0.140       A    2.50000e-01  2.09200e-01
 opls_375   CT  6   12.01100    -0.010       A    3.50000e-01  3.34720e-01
 opls_376   HC  1    1.00800     0.130       A    2.50000e-01  2.09200e-01
 opls_377   NA  7   14.00670    -0.640       A    3.25000e-01  7.11280e-01
 opls_377B  N*  7   14.00670    -0.640       A    3.25000e-01  7.11280e-01
 opls_378   C   6   12.01100     0.650       A    3.75000e-01  4.39320e-01
 opls_379   NA  7   14.00670    -0.740       A    3.25000e-01  7.11280e-01
 opls_380   CA  6   12.01100     0.660       A    3.50000e-01  3.34720e-01
 opls_381   CM  6   12.01100    -0.060       A    3.50000e-01  3.34720e-01
 opls_382   CM  6   12.01100     0.100       A    3.50000e-01  3.34720e-01
 opls_383   H   1    1.00800     0.490       A    0.00000e+00  0.00000e+00
 opls_384   O   8   15.99940    -0.300       A    2.96000e-01  8.78640e-01
 opls_385   H   1    1.00800     0.480       A    0.00000e+00  0.00000e+00
 opls_386   N2  7   14.00670    -0.810       A    3.25000e-01  7.11280e-01
 opls_387   H   1    1.00800     0.460       A    0.00000e+00  0.00000e+00
 opls_388   H   1    1.00800     0.430       A    0.00000e+00  0.00000e+00
 opls_389   HA  1    1.00800     0.140       A    2.50000e-01  2.09200e-01
 opls_390   H4  1    1.00800     0.140       A    2.50000e-01  2.09200e-01
 opls_391   CT  6   12.01100     0.010       A    3.50000e-01  3.34720e-01
 opls_392   HC  1    1.00800     0.160       A    2.50000e-01  2.09200e-01
 opls_393   P   15   30.97376     0.780       A    3.74000e-01  8.36800e-01
 opls_394   O2  8   15.99940    -0.660       A    2.96000e-01  8.78640e-01
 opls_395   OS  8   15.99940    -0.430       A    3.00000e-01  7.11280e-01
 opls_396   CT  6   12.01100     0.020       A    3.55000e-01  2.76144e-01
 opls_400   F-  9   18.99840    -1.000       A    2.73295e-01  3.01248e+00
 opls_401   Cl- 17   35.45300    -1.000       A    4.41724e-01  4.92833e-01
 opls_402   Br- 35   79.90400    -1.000       A    4.62376e-01  3.76560e-01
 opls_403   I-  53  126.90450    -1.000       A    5.40000e-01  2.92880e-01
 opls_404   Li+  3   6.94100     1.000       A    1.25992e-01  2.61500e+01
 opls_405   Na+  11  22.98977     1.000       A    1.89744e-01  6.72427e+00
 opls_406   Li+  3   6.94100     1.000       A    2.12645e-01  7.64793e-02
 opls_407   Na+  11  22.98977     1.000       A    3.33045e-01  1.15980e-02
 opls_408   K+   19  39.09830     1.000       A    4.93463e-01  1.37235e-03
 opls_409   Rb+  37  85.46780     1.000       A    5.62177e-01  7.15464e-04
 opls_410   Cs+  55 132.90540     1.000       A    6.71600e-01  3.38904e-04
 opls_411   Mg2+ 12  24.30500     2.000       A    1.64447e-01  3.66118e+00
 opls_412   Ca2+ 20  40.08000     2.000       A    2.41203e-01  1.88136e+00
 opls_413   Sr2+ 38  87.62000     2.000       A    3.10269e-01  4.94658e-01
 opls_414   Ba2+ 56  137.33000     2.000       A    3.81661e-01  1.97050e-01
 opls_415   C3   6  12.01100    -0.400       A    4.20000e-01  1.25520e+00
 opls_416   HC   1   1.00800     0.100       A    2.50000e-01  2.09200e-01
 opls_417   SH   16  32.06000    -0.900       A    4.25000e-01  2.09200e+00
 opls_418   C3   6  12.01100    -0.200       A    4.20000e-01  1.25520e+00
 opls_419   HC   1   1.00800     0.060       A    2.50000e-01  2.09200e-01
 opls_420   OH   8  15.99940    -0.980       A    3.15000e-01  1.04600e+00
 opls_421   CT   6  12.01100    -1.070       A    4.20000e-01  1.25520e+00
 opls_422   HC   1   1.00800     0.190       A    2.50000e-01  2.09200e-01
 opls_423   CZ   6  12.01100     0.510       A    3.65000e-01  6.27600e-01
 opls_424   NZ   7  14.00670    -0.820       A    3.40000e-01  1.04600e+00
 opls_425   C3   6  12.01100    -0.300       A    4.20000e-01  1.25520e+00
 opls_426   HC   1   1.00800     0.070       A    2.50000e-01  2.09200e-01
 opls_427   N3   7  14.00670    -1.310       A    3.40000e-01  1.04600e+00
 opls_428   H    1   1.00800     0.400       A    2.50000e-01  2.09200e-01
 opls_429   C3   6  12.01100    -0.400       A    4.20000e-01  1.25520e+00
 opls_430   HC   1   1.00800     0.080       A    2.50000e-01  2.09200e-01
 opls_431   CT   6  12.01100     0.000       A    4.20000e-01  1.25520e+00
 opls_432   HC   1   1.00800     0.070       A    2.50000e-01  2.09200e-01
 opls_433   LP   0   0.00000    -0.980       A    0.00000e+00  0.00000e+00
 opls_434   OH   8  15.99940    -1.300       A    3.20000e-01  1.04600e+00
 opls_435   HO   1   1.00800     0.300       A    0.00000e+00  0.00000e+00
 opls_436   U    0   0.00000     2.500       A    2.81524e-01  1.67360e+00
 opls_437   OU   8  15.99940    -0.250       A    3.11815e-01  8.36800e-01
 opls_440   P    15  30.97376     1.620       A    3.74000e-01  8.36800e-01
 opls_441   O2   8  15.99940    -0.920       A    3.15000e-01  8.36800e-01
 opls_442   OS   8  15.99940    -0.600       A    2.90000e-01  5.85760e-01
 opls_443   CT   6  12.01100     0.300       A    3.50000e-01  2.76144e-01
 opls_444   HC   1   1.00800    -0.030       A    2.50000e-01  1.25520e-01
 opls_445   P    15  30.97376     1.920       A    3.74000e-01  8.36800e-01
 opls_446   O2   8  15.99940    -1.120       A    3.15000e-01  8.36800e-01
 opls_447   OS   8  15.99940    -0.700       A    2.90000e-01  5.85760e-01
 opls_448   CT   6  12.01100     0.440       A    3.50000e-01  2.76144e-01
 opls_449   HC   1   1.00800    -0.100       A    2.50000e-01  1.25520e-01
 opls_450   P    15  30.97376     1.620       A    3.74000e-01  8.36800e-01
 opls_451   O2   8  15.99940    -0.970       A    3.15000e-01  8.36800e-01
 opls_452   OS   8  15.99940    -0.630       A    2.90000e-01  5.85760e-01
 opls_453   CT   6  12.01100     0.280       A    3.50000e-01  2.76144e-01
 opls_454   HC   1   1.00800    -0.020       A    2.50000e-01  1.25520e-01
 opls_455   CT   6  12.01100    -0.510       A    3.50000e-01  2.76144e-01
 opls_456   HC   1   1.00800     0.080       A    2.50000e-01  1.25520e-01
 opls_457   CA   6  12.01100    -0.140       A    3.55000e-01  2.92880e-01
 opls_458   CT   6  12.01100     0.320       A    3.50000e-01  2.76144e-01
 opls_459   HC   1   1.00800     0.020       A    2.50000e-01  1.25520e-01
 opls_460   CA   6  12.01100    -0.040       A    3.55000e-01  2.92880e-01
 opls_461   CT   6  12.01100    -0.470       A    3.50000e-01  2.76144e-01
 opls_462   HC   1   1.00800     0.120       A    2.50000e-01  1.25520e-01
 opls_463   CA   6  12.01100     0.140       A    3.55000e-01  2.92880e-01
 opls_465   C_2  6  12.01100     0.510       A    3.75000e-01  4.39320e-01
 opls_466   O_2  8  15.99940    -0.430       A    2.96000e-01  8.78640e-01
 opls_467   OS   8  15.99940    -0.330       A    3.00000e-01  7.11280e-01
 opls_468   CT   6  12.01100     0.160       A    3.50000e-01  2.76144e-01
 opls_469   HC   1   1.00800     0.030       A    2.42000e-01  6.27600e-02
 opls_470   C    6  12.01100     0.635       A    3.75000e-01  4.39320e-01
 opls_471   C    6  12.01100     0.625       A    3.75000e-01  4.39320e-01
 opls_472   CA   6  12.01100     0.135       A    3.55000e-01  2.92880e-01
 opls_473   OS   8  15.99940    -0.215       A    3.00000e-01  7.11280e-01
 opls_474   SY   16  32.06000     1.480       A    3.55000e-01  1.04600e+00
 opls_475   OY   8  15.99940    -0.680       A    2.96000e-01  7.11280e-01
 opls_476   CT   6  12.01100    -0.540       A    3.50000e-01  2.76144e-01
 opls_477   HC   1   1.00800     0.180       A    2.50000e-01  1.25520e-01
 opls_478   N    7  14.00670    -1.000       A    3.25000e-01  7.11280e-01
 opls_479   H    1   1.00800     0.440       A    0.00000e+00  0.00000e+00
 opls_480   N    7  14.00670    -0.800       A    3.25000e-01  7.11280e-01
 opls_481   H    1   1.00800     0.410       A    0.00000e+00  0.00000e+00
 opls_482   CT   6  12.01100     0.180       A    3.50000e-01  2.76144e-01
 opls_483   HC     1	 1.00800     0.030       A    2.50000e-01  1.25520e-01
 opls_484   CT     6	12.01100     0.390       A    3.50000e-01  2.76144e-01
 opls_485   HC     1	 1.00800    -0.060       A    2.50000e-01  1.25520e-01
 opls_486   CT     6	12.01100    -0.180       A    3.50000e-01  2.76144e-01
 opls_487   HC     1	 1.00800     0.060       A    2.50000e-01  1.25520e-01
 opls_488   CA     6	12.01100     0.000       A    3.55000e-01  2.92880e-01
 opls_490   CT     6	12.01100     0.190       A    3.50000e-01  2.76144e-01
 opls_491   CT     6	12.01100     0.220       A    3.50000e-01  2.76144e-01
 opls_492   CT     6	12.01100     0.250       A    3.50000e-01  2.76144e-01
 opls_493   SY2    16	32.06000     1.374       A    3.55000e-01  1.04600e+00
 opls_494   OY     8	15.99940    -0.687       A    2.96000e-01  7.11280e-01
 opls_496   SZ     16	32.06000     0.130       A    3.56000e-01  1.65268e+00
 opls_497   OY     8	15.99940    -0.420       A    2.93000e-01  1.17152e+00
 opls_498   CT     6	12.01100    -0.035       A    3.50000e-01  2.76144e-01
 opls_499   CT     6	12.01100     0.025       A    3.50000e-01  2.76144e-01
 opls_500   C*     6	12.01100     0.075       A    3.55000e-01  2.92880e-01
 opls_501   CB     6	12.01100    -0.055       A    3.55000e-01  2.92880e-01
 opls_502   CN     6	12.01100     0.130       A    3.55000e-01  2.92880e-01
 opls_503   NA     7	14.00670    -0.570       A    3.25000e-01  7.11280e-01
 opls_504   H      1	 1.00800     0.420       A    0.00000e+00  0.00000e+00
 opls_505   CT     6	12.01100    -0.005       A    3.50000e-01  2.76144e-01
 opls_506   CR     6	12.01100     0.182       A    3.55000e-01  2.92880e-01
 opls_507   CV     6	12.01100     0.504       A    3.55000e-01  2.92880e-01
 opls_508   CW     6	12.01100    -0.261       A    3.55000e-01  2.92880e-01
 opls_509   CR     6	12.01100     0.385       A    3.55000e-01  2.92880e-01
 opls_510   CX     6	12.01100     0.215       A    3.55000e-01  2.92880e-01
 opls_511   NB     7	14.00670    -0.564       A    3.25000e-01  7.11280e-01
 opls_512   NA     7	14.00670    -0.540       A    3.25000e-01  7.11280e-01
 opls_513   H      1	 1.00800     0.460       A    0.00000e+00  0.00000e+00
 opls_514   CW     6	12.01100    -0.115       A    3.55000e-01  2.92880e-01
 opls_515   CT     6	12.01100     0.055       A    3.50000e-01  2.76144e-01
 opls_516   CT     6	12.01100     0.115       A    3.50000e-01  2.76144e-01
 opls_517   CM     6	12.01100    -0.030       A    3.55000e-01  3.17984e-01
 opls_518   CM     6	12.01100     0.085       A    3.55000e-01  3.17984e-01
 opls_520   NC     7	14.00670    -0.678       A    3.25000e-01  7.11280e-01
 opls_521   CA     6	12.01100     0.473       A    3.55000e-01  2.92880e-01
 opls_522   CA     6	12.01100    -0.447       A    3.55000e-01  2.92880e-01
 opls_523   CA     6	12.01100     0.227       A    3.55000e-01  2.92880e-01
 opls_524   HA     1	 1.00800     0.012       A    2.42000e-01  1.25520e-01
 opls_525   HA     1	 1.00800     0.155       A    2.42000e-01  1.25520e-01
 opls_526   HA     1	 1.00800     0.065       A    2.42000e-01  1.25520e-01
 opls_527   NC     7	14.00670    -0.468       A    3.25000e-01  7.11280e-01
 opls_528   CA     6	12.01100     0.192       A    3.55000e-01  2.92880e-01
 opls_529   HA     1	 1.00800     0.042       A    2.42000e-01  1.25520e-01
 opls_530   NC     7	14.00670    -0.839       A    3.25000e-01  7.11280e-01
 opls_531   CQ     6	12.01100     0.874       A    3.55000e-01  2.92880e-01
 opls_532   CA     6	12.01100     0.653       A    3.55000e-01  2.92880e-01
 opls_533   CA     6	12.01100    -0.689       A    3.55000e-01  2.92880e-01
 opls_534   HA     1	 1.00800    -0.032       A    2.42000e-01  1.25520e-01
 opls_535   HA     1	 1.00800     0.011       A    2.42000e-01  1.25520e-01
 opls_536   HA     1	 1.00800     0.197       A    2.42000e-01  1.25520e-01
 opls_537   NC     7	14.00670    -0.331       A    3.25000e-01  7.11280e-01
 opls_538   CA     6	12.01100     0.378       A    3.55000e-01  2.92880e-01
 opls_539   CA     6	12.01100    -0.160       A    3.55000e-01  2.92880e-01
 opls_540   HA     1	 1.00800    -0.009       A    2.42000e-01  1.25520e-01
 opls_541   HA     1	 1.00800     0.122       A    2.42000e-01  1.25520e-01
 opls_542   NA     7	14.00670    -0.239       A    3.25000e-01  7.11280e-01
 opls_543   CW     6	12.01100    -0.163       A    3.55000e-01  2.92880e-01
 opls_544   CS     6	12.01100    -0.149       A    3.55000e-01  2.92880e-01
 opls_545   H      1	 1.00800     0.317       A    0.00000e+00  0.00000e+00
 opls_546   HA     1	 1.00800     0.155       A    2.42000e-01  1.25520e-01
 opls_547   HA     1	 1.00800     0.118       A    2.42000e-01  1.25520e-01
 opls_548   NA     7	14.00670    -0.059       A    3.25000e-01  7.11280e-01
 opls_549   NB     7	14.00670    -0.491       A    3.25000e-01  7.11280e-01
 opls_550   CU     6	12.01100     0.246       A    3.55000e-01  2.92880e-01
 opls_551   CA     6	12.01100    -0.320       A    3.55000e-01  2.92880e-01
 opls_552   CW     6	12.01100    -0.034       A    3.55000e-01  2.92880e-01
 opls_553   H      1	 1.00800     0.301       A    0.00000e+00  0.00000e+00
 opls_554   HA     1	 1.00800     0.072       A    2.42000e-01  1.25520e-01
 opls_555   HA     1	 1.00800     0.150       A    2.42000e-01  1.25520e-01
 opls_556   HA     1	 1.00800     0.135       A    2.42000e-01  1.25520e-01
 opls_557   NA     7	14.00670    -0.257       A    3.25000e-01  7.11280e-01
 opls_558   CR     6	12.01100     0.275       A    3.55000e-01  2.92880e-01
 opls_559   NB     7	14.00670    -0.563       A    3.25000e-01  7.11280e-01
 opls_560   CV     6	12.01100     0.185       A    3.55000e-01  2.92880e-01
 opls_561   CW     6	12.01100    -0.286       A    3.55000e-01  2.92880e-01
 opls_562   H      1	 1.00800     0.306       A    0.00000e+00  0.00000e+00
 opls_563   HA     1	 1.00800     0.078       A    2.42000e-01  1.25520e-01
 opls_564   HA     1	 1.00800     0.075       A    2.42000e-01  1.25520e-01
 opls_565   HA     1	 1.00800     0.187       A    2.42000e-01  1.25520e-01
 opls_566   OS     8	15.99940    -0.190       A    2.90000e-01  5.85760e-01
 opls_567   CW     6	12.01100    -0.019       A    3.55000e-01  2.92880e-01
 opls_568   CS     6	12.01100    -0.154       A    3.55000e-01  3.17984e-01
 opls_569   HA     1	 1.00800     0.142       A    2.42000e-01  1.25520e-01
 opls_570   HA     1	 1.00800     0.126       A    2.42000e-01  1.25520e-01
 opls_571   OS     8	15.99940    -0.257       A    2.90000e-01  5.85760e-01
 opls_572   CR     6	12.01100     0.511       A    3.55000e-01  2.92880e-01
 opls_573   NB     7	14.00670    -0.590       A    3.25000e-01  7.11280e-01
 opls_574   CV     6	12.01100     0.169       A    3.55000e-01  2.92880e-01
 opls_575   CW     6	12.01100    -0.148       A    3.55000e-01  2.92880e-01
 opls_576   HA     1	 1.00800     0.043       A    2.42000e-01  1.25520e-01
 opls_577   HA     1	 1.00800     0.091       A    2.42000e-01  1.25520e-01
 opls_578   HA     1	 1.00800     0.181       A    2.42000e-01  1.25520e-01
 opls_579   OS     8	15.99940    -0.122       A    2.90000e-01  5.85760e-01
 opls_580   NB     7	14.00670    -0.413       A    3.25000e-01  7.11280e-01
 opls_581   CU     6	12.01100     0.405       A    3.55000e-01  2.92880e-01
 opls_582   CA     6	12.01100    -0.455       A    3.55000e-01  2.92880e-01
 opls_583   CW     6	12.01100     0.250       A    3.55000e-01  2.92880e-01
 opls_584   HA     1	 1.00800     0.053       A    2.42000e-01  1.25520e-01
 opls_585   HA     1	 1.00800     0.184       A    2.42000e-01  1.25520e-01
 opls_586   HA     1	 1.00800     0.098       A    2.42000e-01  1.25520e-01
 opls_587   NA     7	14.00670    -0.500       A    3.25000e-01  7.11280e-01
 opls_588   CW     6	12.01100     0.001       A    3.55000e-01  2.92880e-01
 opls_589   CS     6	12.01100    -0.390       A    3.55000e-01  2.92880e-01
 opls_590   CA     6	12.01100    -0.270       A    3.55000e-01  2.92880e-01
 opls_591   CA     6	12.01100    -0.127       A    3.55000e-01  2.92880e-01
 opls_592   CA     6	12.01100    -0.108       A    3.55000e-01  2.92880e-01
 opls_593   CA     6	12.01100    -0.258       A    3.55000e-01  2.92880e-01
 opls_594   CN     6	12.01100     0.220       A    3.55000e-01  2.92880e-01
 opls_595   CB     6	12.01100     0.225       A    3.55000e-01  2.92880e-01
 opls_596   H      1	 1.00800     0.376       A    0.00000e+00  0.00000e+00
 opls_597   HA     1	 1.00800     0.147       A    2.42000e-01  1.25520e-01
 opls_598   HA     1	 1.00800     0.172       A    2.42000e-01  1.25520e-01
 opls_599   HA     1	 1.00800     0.155       A    2.42000e-01  1.25520e-01
 opls_600   HA     1	 1.00800     0.107       A    2.42000e-01  1.25520e-01
 opls_601   HA     1	 1.00800     0.110       A    2.42000e-01  1.25520e-01
 opls_602   HA     1	 1.00800     0.140       A    2.42000e-01  1.25520e-01
 opls_603   NC     7	14.00670    -0.694       A    3.25000e-01  7.11280e-01
 opls_604   CA     6	12.01100     0.425       A    3.55000e-01  2.92880e-01
 opls_605   CA     6	12.01100    -0.359       A    3.55000e-01  2.92880e-01
 opls_606   CA     6	12.01100    -0.008       A    3.55000e-01  2.92880e-01
 opls_607   CA     6	12.01100    -0.197       A    3.55000e-01  2.92880e-01
 opls_608   CA     6	12.01100    -0.112       A    3.55000e-01  2.92880e-01
 opls_609   CA     6	12.01100    -0.070       A    3.55000e-01  2.92880e-01
 opls_610   CA     6	12.01100    -0.307       A    3.55000e-01  2.92880e-01
 opls_611   CA     6	12.01100     0.563       A    3.55000e-01  2.92880e-01
 opls_612   CA     6	12.01100    -0.051       A    3.55000e-01  2.92880e-01
 opls_613   HA     1	 1.00800     0.028       A    2.42000e-01  1.25520e-01
 opls_614   HA     1	 1.00800     0.146       A    2.42000e-01  1.25520e-01
 opls_615   HA     1	 1.00800     0.119       A    2.42000e-01  1.25520e-01
 opls_616   HA     1	 1.00800     0.133       A    2.42000e-01  1.25520e-01
 opls_617   HA     1	 1.00800     0.113       A    2.42000e-01  1.25520e-01
 opls_618   HA     1	 1.00800     0.114       A    2.42000e-01  1.25520e-01
 opls_619   HA     1	 1.00800     0.157       A    2.42000e-01  1.25520e-01
 opls_620   NC     7	14.00670    -0.760       A    3.25000e-01  7.11280e-01
 opls_621   CQ     6	12.01100     0.679       A    3.55000e-01  2.92880e-01
 opls_622   NC     7	14.00670    -0.788       A    3.25000e-01  7.11280e-01
 opls_623   CB     6	12.01100     0.736       A    3.55000e-01  2.92880e-01
 opls_624   CB     6	12.01100     0.038       A    3.55000e-01  2.92880e-01
 opls_625   CA     6	12.01100     0.343       A    3.55000e-01  2.92880e-01
 opls_626   NB     7	14.00670    -0.642       A    3.25000e-01  7.11280e-01
 opls_627   CK     6	12.01100     0.452       A    3.55000e-01  2.92880e-01
 opls_628   NA     7	14.00670    -0.682       A    3.25000e-01  7.11280e-01
 opls_629   HA     1	 1.00800     0.024       A    2.42000e-01  1.25520e-01
 opls_630   HA     1	 1.00800     0.101       A    2.42000e-01  1.25520e-01
 opls_631   HA     1	 1.00800     0.086       A    2.42000e-01  1.25520e-01
 opls_632   H      1	 1.00800     0.413       A    0.00000e+00  0.00000e+00
 opls_633   S      16	32.06000    -0.030       A    3.55000e-01  1.04600e+00
 opls_634   CR     6	12.01100     0.242       A    3.55000e-01  2.92880e-01
 opls_635   NB     7	14.00670    -0.515       A    3.25000e-01  7.11280e-01
 opls_636   CV     6	12.01100     0.228       A    3.55000e-01  2.92880e-01
 opls_637   CW     6	12.01100    -0.299       A    3.55000e-01  2.92880e-01
 opls_638   HA     1	 1.00800     0.101       A    2.42000e-01  1.25520e-01
 opls_639   HA     1	 1.00800     0.068       A    2.42000e-01  1.25520e-01
 opls_640   HA     1	 1.00800     0.205       A    2.42000e-01  1.25520e-01
 opls_641   NC     7	14.00670    -0.951       A    3.25000e-01  7.11280e-01
 opls_642   CQ     6	12.01100     0.965       A    3.55000e-01  2.92880e-01
 opls_643   HA     1	 1.00800    -0.014       A    2.42000e-01  1.25520e-01
 opls_644   CA     6	12.01100     0.130       A    3.55000e-01  2.92880e-01
 opls_645   CT     6	12.01100     0.052       A    3.50000e-01  2.76144e-01
 opls_646   NC     7	14.00670    -0.599       A    3.25000e-01  7.11280e-01
 opls_647   CA     6	12.01100     0.392       A    3.55000e-01  2.92880e-01
 opls_648   CA     6	12.01100    -0.348       A    3.55000e-01  2.92880e-01
 opls_649   CA     6	12.01100     0.020       A    3.55000e-01  2.92880e-01
 opls_650   CA     6	12.01100    -0.042       A    3.55000e-01  2.92880e-01
 opls_651   CA     6	12.01100     0.347       A    3.55000e-01  2.92880e-01
 opls_652   CA     6	12.01100    -0.196       A    3.55000e-01  2.92880e-01
 opls_653   HA     1	 1.00800     0.032       A    2.42000e-01  1.25520e-01
 opls_654   HA     1	 1.00800     0.146       A    2.42000e-01  1.25520e-01
 opls_655   HA     1	 1.00800     0.108       A    2.42000e-01  1.25520e-01
 opls_656   HA     1	 1.00800     0.140       A    2.42000e-01  1.25520e-01
 opls_670   CT     6	12.01100    -0.168       A    3.50000e-01  2.76144e-01
 opls_671   CT     6	12.01100    -0.108       A    3.50000e-01  2.76144e-01
 opls_672   CT     6	12.01100    -0.189       A    3.50000e-01  2.76144e-01
 opls_673   CT     6	12.01100    -0.129       A    3.50000e-01  2.76144e-01
 opls_674   CT     6	12.01100    -0.169       A    3.50000e-01  2.76144e-01
 opls_675   CT     6	12.01100    -0.109       A    3.50000e-01  2.76144e-01
 opls_676   CT     6	12.01100    -0.138       A    3.50000e-01  2.76144e-01
 opls_677   CT     6	12.01100    -0.078       A    3.50000e-01  2.76144e-01
 opls_678   CT     6	12.01100    -0.025       A    3.50000e-01  2.76144e-01
 opls_679   CT     6	12.01100     0.035       A    3.50000e-01  2.76144e-01
 opls_680   CT     6	12.01100    -0.038       A    3.50000e-01  2.76144e-01
 opls_681   CT     6	12.01100     0.022       A    3.50000e-01  2.76144e-01
 opls_697   Ac3+   89	227.0300     3.000       A    3.47300e-01  2.25936e-01
 opls_698   Th4+   90   232.0400     4.000       A    3.30000e-01  2.09200e-01
 opls_699   Am3+   95   243.0600     3.000       A    3.30000e-01  2.09200e-01
 opls_700   C+     6	12.01100     0.619       A    3.55000e-01  3.17984e-01
 opls_701   CT     6	12.01100    -0.395       A    3.50000e-01  2.76144e-01
 opls_702   HC     1	 1.00800     0.174       A    2.50000e-01  1.25520e-01
 opls_703   La3+   57 	138.9100     3.000       A    3.75000e-01  2.51040e-01
 opls_704   Nd3+   60	144.2400     3.000       A    3.47300e-01  2.25936e-01
 opls_705   Eu3+   63   151.9600     3.000       A    3.30000e-01  2.09200e-01
 opls_706   Gd3+   64   157.2500     3.000       A    3.30000e-01  2.09200e-01
 opls_707   Yb3+   70	173.0400     3.000       A    2.95000e-01  1.67360e-01
 opls_708   CM     6	12.01100    -0.344       A    3.55000e-01  3.17984e-01
 opls_709   Cl-    17	35.45300    -0.628       A    3.40000e-01  1.25520e+00
 opls_710   HC     1	 1.00800     0.200       A    2.42000e-01  1.25520e-01
 opls_711   CY     6	12.01100    -0.120       A    3.50000e-01  2.76144e-01
 opls_712   CY     6	12.01100    -0.060       A    3.50000e-01  2.76144e-01
 opls_713   CY     6	12.01100     0.000       A    3.50000e-01  2.76144e-01
 opls_714   CA     6	12.01100    -0.230       A    3.55000e-01  2.92880e-01
 opls_715   HA     1	 1.00800     0.030       A    2.42000e-01  1.25520e-01
 opls_716   CA     6	12.01100    -0.099       A    3.55000e-01  2.92880e-01
 opls_717   HA     1	 1.00800     0.099       A    2.42000e-01  1.25520e-01
 opls_718   CA     6	12.01100     0.220       A    3.55000e-01  2.92880e-01
 opls_719   F      9	18.99840    -0.220       A    2.85000e-01  2.55224e-01
 opls_720   CA     6	12.01100     0.130       A    3.55000e-01  2.92880e-01
 opls_721   F      9	18.99840    -0.130       A    2.85000e-01  2.55224e-01
 opls_722   Br     35	79.90400    -0.220       A    3.47000e-01  1.96648e+00
 opls_724   CA     6	12.01100     0.150       A    3.55000e-01  2.92880e-01
 opls_725   CT     6	12.01100     0.450       A    3.25000e-01  2.59408e-01
 opls_726   F      9	18.99840    -0.200       A    2.94000e-01  2.55224e-01
 opls_727   CA     6	12.01100     0.200       A    3.55000e-01  2.92880e-01
 opls_728   F      9	18.99840    -0.200       A    2.85000e-01  2.55224e-01
 opls_729   CA     6	12.01100     0.200       A    3.55000e-01  2.92880e-01
 opls_730   Br     35	79.90400    -0.200       A    3.47000e-01  1.96648e+00
 opls_731   CA     6	12.01100     0.100       A    3.55000e-01  2.92880e-01
 opls_732   I      53	126.90450    -0.100       A    3.67000e-01  2.42672e+00
 opls_733   CY     6	12.01100     0.055       A    3.50000e-01  2.76144e-01
 opls_734   SH     16	32.06000    -0.220       A    3.55000e-01  1.04600e+00
 opls_735   CA     6	12.01100     0.065       A    3.55000e-01  2.92880e-01
 opls_736   CA     6	12.01100     0.013       A    3.55000e-01  2.92880e-01
 opls_737   CA     6	12.01100    -0.106       A    3.55000e-01  2.92880e-01
 opls_738   CA     6	12.01100    -0.090       A    3.55000e-01  2.92880e-01
 opls_739   CA     6	12.01100    -0.119       A    3.55000e-01  2.92880e-01
 opls_740   HA     1	 1.00800     0.141       A    2.42000e-01  1.25520e-01
 opls_741   HA     1	 1.00800     0.129       A    2.42000e-01  1.25520e-01
 opls_742   CA     6	12.01100     0.827       A    2.25000e-01  2.09200e-01
 opls_743   N2     7	14.00670    -0.885       A    3.25000e-01  7.11280e-01
 opls_744   H      1	 1.00800     0.426       A    0.00000e+00  0.00000e+00
 opls_745   H      1	 1.00800     0.465       A    0.00000e+00  0.00000e+00
 opls_746   HA     1	 1.00800     0.119       A    2.42000e-01  1.25520e-01
 opls_747   CT     6	12.01100    -0.020       A    3.50000e-01  2.76144e-01
 opls_748   CT     6	12.01100     0.040       A    3.50000e-01  2.76144e-01
 opls_749   NY     7	14.00670    -0.620       A    3.25000e-01  7.11280e-01
 opls_750   NZ     7	14.00670    -0.785       A    3.25000e-01  7.11280e-01
 opls_751   NY     7	14.00670    -0.785       A    3.25000e-01  7.11280e-01
 opls_752   CA     6	12.01100     0.550       A    2.25000e-01  2.09200e-01
 opls_753   NZ     7	14.00670    -0.560       A    3.20000e-01  7.11280e-01
 opls_754   CZ     6	12.01100     0.460       A    3.30000e-01  2.76144e-01
 opls_755   CT     6	12.01100    -0.080       A    3.30000e-01  2.76144e-01
 opls_756   CT     6	12.01100    -0.020       A    3.30000e-01  2.76144e-01
 opls_757   CT     6	12.01100     0.040       A    3.30000e-01  2.76144e-01
 opls_758   CT     6	12.01100     0.100       A    3.30000e-01  2.76144e-01
 opls_759   HC     1	 1.00800     0.060       A    2.50000e-01  6.27600e-02
 opls_760   NO     7	14.00670     0.540       A    3.25000e-01  5.02080e-01
 opls_761   ON     8	15.99940    -0.370       A    2.96000e-01  7.11280e-01
 opls_762   CT     6	12.01100     0.020       A    3.50000e-01  2.76144e-01
 opls_763   HC     1	 1.00800     0.060       A    2.50000e-01  6.27600e-02
 opls_764   CT     6	12.01100     0.080       A    3.50000e-01  2.76144e-01
 opls_765   CT     6	12.01100     0.140       A    3.50000e-01  2.76144e-01
 opls_766   CT     6	12.01100     0.200       A    3.50000e-01  2.76144e-01
 opls_767   NO     7	14.00670     0.650       A    3.25000e-01  5.02080e-01
 opls_768   CA     6	12.01100     0.090       A    3.55000e-01  2.92880e-01
 opls_771   O      8	15.99940    -0.500       A    2.96000e-01  8.78640e-01
 opls_772   C      6	12.01100     0.860       A    3.75000e-01  4.39320e-01
 opls_773   OS     8	15.99940    -0.450       A    3.00000e-01  7.11280e-01
 opls_774   CT     6	12.01100     0.210       A    3.50000e-01  2.76144e-01
 opls_775   CT     6	12.01100     0.160       A    3.50000e-01  2.76144e-01
 opls_776   CT     6	12.01100    -0.100       A    3.50000e-01  2.76144e-01
 opls_777   HC     1	 1.00800     0.030       A    2.42000e-01  6.27600e-02
 opls_778   HC     1	 1.00800     0.030       A    2.42000e-01  6.27600e-02
 opls_779   HC     1	 1.00800     0.060       A    2.42000e-01  6.27600e-02
 opls_781   P+     15	30.97376     0.968       A    3.74000e-01  8.36800e-01
 opls_782   CT     6	12.01100    -0.508       A    3.50000e-01  2.76144e-01
 opls_783   CT     6	12.01100    -0.008       A    3.50000e-01  2.76144e-01
 opls_784   HC     1	 1.00800     0.172       A    2.50000e-01  1.25520e-01
 opls_785   P      15	30.97376     1.340       A    3.74000e-01  8.36800e-01
 opls_786   F      9	18.99840    -0.390       A    3.11810e-01  2.55224e-01
 opls_787   N      7	14.00670     0.794       A    3.15000e-01  7.11280e-01
 opls_788   O      8	15.99940    -0.598       A    2.86000e-01  8.78640e-01
 opls_795   OW     8	15.99940     0.000       A    3.21500e-01  5.85760e-01
 opls_796   HW     1	 1.00800     0.511       A    0.00000e+00  0.00000e+00
 opls_797   LP     0	 0.00000    -1.022       A    0.00000e+00  0.00000e+00
 opls_900   NT     7	14.00670    -0.900       A    3.30000e-01  7.11280e-01
 opls_901   NT     7	14.00670    -0.780       A    3.30000e-01  7.11280e-01
 opls_902   NT     7	14.00670    -0.630       A    3.30000e-01  7.11280e-01
 opls_903   CT     6	12.01100     0.000       A    3.50000e-01  2.76144e-01
 opls_904   CT     6	12.01100     0.020       A    3.50000e-01  2.76144e-01
 opls_905   CT     6	12.01100     0.030       A    3.50000e-01  2.76144e-01
 opls_906   CT     6	12.01100     0.060       A    3.50000e-01  2.76144e-01
 opls_906B  CT_2   6	12.01100     0.060       A    3.50000e-01  2.76144e-01
 opls_907   CT     6	12.01100     0.080       A    3.50000e-01  2.76144e-01
 opls_908   CT     6	12.01100     0.090       A    3.50000e-01  2.76144e-01
 opls_909   H      1	 1.00800     0.360       A    0.00000e+00  0.00000e+00
 opls_910   H      1	 1.00800     0.380       A    0.00000e+00  0.00000e+00
 opls_911   HC     1	 1.00800     0.060       A    2.50000e-01  6.27600e-02
 opls_912   CT     6	12.01100     0.120       A    3.50000e-01  2.76144e-01
 opls_912B  CT_2   6	12.01100     0.120       A    3.50000e-01  2.76144e-01
 opls_913   CT     6	12.01100     0.180       A    3.50000e-01  2.76144e-01
 opls_914   CT     6	12.01100     0.140       A    3.50000e-01  2.76144e-01
 opls_915   CT     6	12.01100     0.150       A    3.50000e-01  2.76144e-01
 opls_916   CA     6	12.01100     0.180       A    3.55000e-01  2.92880e-01
 opls_917   CA     6	12.01100     0.200       A    3.55000e-01  2.92880e-01
 opls_918   CA     6	12.01100     0.210       A    3.55000e-01  2.92880e-01
 opls_925   CZ     6	12.01100    -0.210       A    3.30000e-01  3.59824e-01
 opls_926   HC     1	 1.00800     0.200       A    2.42000e-01  6.27600e-02
 opls_927   CZ     6	12.01100     0.010       A    3.30000e-01  8.78640e-01
 opls_928   CZ     6	12.01100     0.010       A    3.30000e-01  5.64840e-01
 opls_929   CZ     6	12.01100     0.010       A    3.30000e-01  4.18400e-01
 opls_930   HC     1	 1.00800     0.060       A    2.50000e-01  6.27600e-02
 opls_931   CZ     6	12.01100     0.000       A    3.30000e-01  8.78640e-01
 opls_940   N3     7	14.00670    -0.100       A    3.25000e-01  7.11280e-01
 opls_941   H3     1	 1.00800     0.290       A    0.00000e+00  0.00000e+00
 opls_942   CT     6	12.01100     0.090       A    3.50000e-01  2.76144e-01
 opls_943   CT     6	12.01100     0.150       A    3.50000e-01  2.76144e-01
 opls_944   CT     6	12.01100     0.210       A    3.50000e-01  2.76144e-01
 opls_945   CT     6	12.01100     0.270       A    3.50000e-01  2.76144e-01
 opls_950   HC     1	 1.00800     0.074       A    2.50000e-01  1.25520e-01
 opls_951   CT     6	12.01100    -0.029       A    3.50000e-01  2.76144e-01
 opls_952   C      6	12.01100     0.700       A    3.75000e-01  4.39320e-01
 opls_953   N3     7	14.00670    -0.352       A    3.25000e-01  7.11280e-01
 opls_954   O2     8	15.99940    -0.709       A    2.96000e-01  8.78640e-01
 opls_955   H3     1	 1.00800     0.317       A    0.00000e+00  0.00000e+00
 opls_956   F      9	18.99840    -0.220       A    2.94000e-01  2.55224e-01
 opls_957   CT     6	12.01100     0.020       A    3.50000e-01  2.76144e-01
 opls_958   HC     1	 1.00800     0.100       A    2.50000e-01  1.25520e-01
 opls_959   CT     6	12.01100     0.120       A    3.50000e-01  2.76144e-01
 opls_960   CT     6	12.01100     0.220       A    3.50000e-01  2.76144e-01
 opls_961   CT     6	12.01100     0.360       A    3.50000e-01  2.76144e-01
 opls_962   CT     6	12.01100     0.240       A    3.50000e-01  2.76144e-01
 opls_963   CT     6	12.01100     0.120       A    3.50000e-01  2.76144e-01
 opls_964   CT     6	12.01100     0.480       A    3.50000e-01  4.05848e-01
 opls_965   F      9	18.99840    -0.120       A    2.95000e-01  2.21752e-01
; special dummy-type particles
 MNH3       MNH3    0	0.00000     0.000       A    0.00000e+00  0.00000e+00
 MNH2       MNH2    0	0.00000     0.000       A    0.00000e+00  0.00000e+00
 MCH3A      MCH3A   0	0.00000     0.000       A    0.00000e+00  0.00000e+00
 MCH3B      MCH3B   0	0.00000     0.000       A    0.00000e+00  0.00000e+00
 MW         MW      0	0.00000     0.000       D    0.00000e+00  0.00000e+00
; tip4p-EW
HW_tip4pew   1       1.008   0.0000  A   0.00000e+00  0.00000e+00
OW_tip4pew   8      16.00    0.0000  A   3.16435e-01  6.80946e-01
; Some esoteric OPLS atomtypes are not freely available (or depreciated).
; Interaction types involving these have been commented out.
  
[ bondtypes ]
; i    j  func       b0          kb
  OW    HW      1    0.09572   502080.0   ; For TIP4F Water - wlj 1/98  
  OW    LP      1    0.01750   753120.0   ;          -idem-
  C*    HC      1    0.10800   284512.0   ; 
  C     C3      1    0.15220   265265.6   ; END
  C_2   C3      1    0.15220   265265.6   ; END
  C_3   C3      1    0.15220   265265.6   ; END
  C     CA      1    0.14900   334720.0   ; wlj 8/97
  C_2   CA      1    0.14900   334720.0   ; wlj 8/97
  C_3   CA      1    0.14900   334720.0   ; wlj 8/97
  C     CB      1    0.14190   374049.6   ; GUA
  C_2   CB      1    0.14190   374049.6   ; GUA
  C_3   CB      1    0.14190   374049.6   ; GUA
  C     CM      1    0.14440   343088.0   ; THY
  C_2   CM      1    0.14440   343088.0   ; THY
  C_3   CM      1    0.14440   343088.0   ; THY
  C     CS      1    0.14900   334720.0   ; 
  C_2   CS      1    0.14900   334720.0   ; 
  C_3   CS      1    0.14900   334720.0   ; 
  C     CT      1    0.15220   265265.6   ; 
  C_2   CT      1    0.15220   265265.6   ; 
  C_3   CT      1    0.15220   265265.6   ; 
  C     CT_2    1    0.15220   265265.6   ; AA Calpha
  C_3   CT_2    1    0.15220   265265.6   ; AA C-term
  C     N       1    0.13350   410032.0   ; AA
  C_2   N       1    0.13350   410032.0   ; AA
  C_3   N       1    0.13350   410032.0   ; AA
  C     N*      1    0.13830   354803.2   ; CYT,URA
  C_2   N*      1    0.13830   354803.2   ; CYT,URA
  C_3   N*      1    0.13830   354803.2   ; CYT,URA
  C     NA      1    0.13880   349782.4   ; URAGUA
  C_2   NA      1    0.13880   349782.4   ; URAGUA
  C_3   NA      1    0.13880   349782.4   ; URAGUA
  C     NC      1    0.13580   382417.6   ; CYT
  C_2   NC      1    0.13580   382417.6   ; CYT
  C_3   NC      1    0.13580   382417.6   ; CYT
  C     O       1    0.12290   476976.0   ; URAGUA,CYT,AA
  C     O_2     1    0.12290   476976.0   ; URAGUA,CYT,AA
  C     O_3     1    0.12290   476976.0   ; URAGUA,CYT,AA
  C_2   O_2     1    0.12290   476976.0   ;
  C     O2      1    0.12500   548940.8   ; GLU,ASP
  C_3   O2      1    0.12500   548940.8   ; GLU,ASP
  C     OH      1    0.13640   376560.0   ; TYR
  NO    ON      1    0.12250   460240.0   ; wlj nitro
  CT    NO      1    0.14900   313800.0   ; wlj nitro
  CA    NO      1    0.14600   334720.0   ; wlj nitro
  CA    OH      1    0.13640   376560.0   ; 
  CA    OS      1    0.13640   376560.0   ; wlj
  CB    OS      1    0.13600   284512.0   ; wlj
  CM    OS      1    0.13700   376560.0   ; wlj
  CM    OH      1    0.13700   376560.0   ; wlj
  CA    O       1    0.13640   376560.0   ; 
  CA    O_2     1    0.13640   376560.0   ; 
  C     OS      1    0.13270   179075.2   ; J.Comp.Chem.1990,11,1181 SKF8
  C_2   OS      1    0.13270   179075.2   ; J.Comp.Chem.1990,11,1181 SKF8
  C*    CB      1    0.14590   324678.4   ; TRP
  C*    CT      1    0.14950   265265.6   ; TRP(OL)
  CU    CT      1    0.15100   265265.6   ;   
  CR    CT      1    0.15100   265265.6   ;   
  CS    CT      1    0.14950   265265.6   ; wlj
  C*    CW      1    0.13520   456892.8   ; TRP
  CA    CR      1    0.13670   456892.8   ; from pyrrole- wlj
  CA    CS      1    0.14240   392459.2   ; wlj
  CA    CW      1    0.13670   456892.8   ; pyrrole- wlj
  CQ    O       1    0.13640   376560.0   ; 
  CQ    O_2     1    0.13640   376560.0   ;   
  CS    CW      1    0.13670   456892.8   ; wj/nm
  CS    CS      1    0.14240   392459.2   ; -idem-
  CS    CB      1    0.14240   392459.2   ; -idem-
  CS    HA      1    0.10800   307105.6   ; -idem-
  CU    NB      1    0.13200   343088.0   ; -idem-
  CU    CA      1    0.14210   392459.2   ; -idem-
  CU    HA      1    0.10800   307105.6   ; -idem-
  NA    NB      1    0.13490   334720.0   ; -idem-
  OS    NB      1    0.13990   386601.6   ; -idem-
  OS    CR      1    0.13570   386601.6   ; -idem-
  C3    C3      1    0.15260   217568.0   ; Ethane
  C3    NT      1    0.14480   319657.6   ; -idem- 
  CT    NT      1    0.14480   319657.6   ; -idem-
  NT    NT      1    0.14450   292880.0   ; wlj
  CO    OS      1    0.13800   267776.0   ; Acetal- wlj 2/93
  CO    C3      1    0.15260   217568.0   ; -idem-
  CW    OS      1    0.13600   284512.0   ; Furan - wlj 4/97
  C3    CM      1    0.15100   265265.6   ; THY(use std C-C)
  C3    N       1    0.14490   282001.6   ; TEST!!!!
  C3    N*      1    0.14750   282001.6   ; 9 methyl bases
  C3    N2      1    0.14630   282001.6   ; ARG(OL)
  C3    N3      1    0.14710   307105.6   ; 
  C3    OH      1    0.14250   323004.8   ; SUG(OL),SER
  C3    OS      1    0.14250   267776.0   ; DMP
  C3    S       1    0.18100   185769.6   ; MET(OL)
  C3    SH      1    0.18100   185769.6   ; CYS(OL)
  CA    CA      1    0.14000   392459.2   ; TRP,TYR,PHE
  CA    C!      1    0.14000   392459.2   ; 
  C!    C!      1    0.14600   322168.0   ; wlj
  C!    CS      1    0.14600   322168.0   ; wlj
  C!    CU      1    0.14600   322168.0   ; wlj
  C!    CV      1    0.14600   322168.0   ; wlj
  C!    CW      1    0.14600   322168.0   ; wlj
  C!    CR      1    0.14600   322168.0   ; wlj
  C!    C       1    0.14600   322168.0   ; wlj
  C!    C_2     1    0.14600   322168.0   ; wlj
  C!    C_3     1    0.14600   322168.0   ; wlj
  C!    CM      1    0.14600   322168.0   ; wlj
  C!    NA      1    0.14400   322168.0   ; wlj
  CA    CB      1    0.14040   392459.2   ; ADE
  CA    CM      1    0.14330   357313.6   ; 
  CA    CN      1    0.14000   392459.2   ; TRP
  CA    CT      1    0.15100   265265.6   ; PHE,TYR
  CA    CY      1    0.14900   265265.6   ; wlj
  CW    CT      1    0.15040   265265.6   ; jtr: HID CB-CG
  CV    CT      1    0.15040   265265.6   ; jtr: HIE CB-CG
  CX    CT      1    0.15040   265265.6   ; jtr: HIP CB-CG
  CX    CA      1    0.15040   265265.6   ;  
  CX    CX      1    0.13700   435136.0   ; copy from CV-CW for HIP
  CX    NA      1    0.13810   357313.6   ; jtr- HIP
  CX    HA      1    0.10800   307105.6   ; jtr- HIP
  CA    NY      1    0.13850   319657.6   ; jtr- neutral Arg; MLL
  CA    NZ      1    0.12610   418400.0   ; jtr- neutral Arg; MLL
  NY    H       1    0.10100   363171.2   ; jtr- neutral Arg; MLL
  NY    H3      1    0.10100   363171.2   ; jtr- neutral Arg; MLL
  NZ    H       1    0.10100   363171.2   ; jtr- neutral Arg; MLL
  NZ    H3      1    0.10100   363171.2   ; jtr- neutral Arg; MLL
  CT    NY      1    0.14480   319657.6   ; jtr- neutral Arg; MLL
  CA    N2      1    0.13400   402500.8   ; ARG
  CQ    N2      1    0.13400   402500.8   ; wlj
  CR    N2      1    0.13400   402500.8   ; wlj
  CA    NT      1    0.13400   402500.8   ; wj/rr anilines
  CA    NA      1    0.13810   357313.6   ; GUA
  CQ    N       1    0.13810   357313.6   ; wlj
  CA    NC      1    0.13390   404174.4   ; ADE,GUA,CYT
  C!    NC      1    0.13390   404174.4   ; wlj        
  NC    NC      1    0.13200   418400.0   ; wlj pyridazine
  NC    NZ      1    0.12400   460240.0   ; wlj  azide
  NZ    NZ      1    0.11200   460240.0   ; wlj  azide
  CA    HA      1    0.10800   307105.6   ; PHE, etc.
  CB    CB      1    0.13700   435136.0   ; ADE,GUA
  CR    CS      1    0.13700   435136.0   ; wj
  CV    CW      1    0.13700   435136.0   ; wlj imidazole
  CB    CN      1    0.14190   374049.6   ; TRP
  CB    N*      1    0.13740   364844.8   ; ADE,GUA
  CB    NA      1    0.13740   364844.8   ; wlj
  CB    NB      1    0.13910   346435.2   ; ADE,GUA,HIS
  CB    NC      1    0.13540   385764.8   ; ADE,GUA
  CR    NC      1    0.13540   385764.8   ; wj
  CW    CW      1    0.13750   428441.6   ; 
  CK    HA      1    0.10800   284512.0   ; 
  CK    H5      1    0.10800   307105.6   ; 
  CK    N*      1    0.13710   368192.0   ; 
  CK    NA      1    0.13710   368192.0   ; 
  CK    NB      1    0.13040   442667.2   ; 
  CM    CM      1    0.13400   459403.2   ; wlj
  CM    C=      1    0.13400   459403.2   ; wlj 
  CW    C=      1    0.13650   459403.2   ; 
  C=    C=      1    0.14600   322168.0   ; wlj 1,3-diene 3/97
  C     C       1    0.15100   292880.0   ; wlj oxalic acid, etc.
  C     C_2     1    0.15100   292880.0   ; wlj oxalic acid, etc.
  C     C_3     1    0.15100   292880.0   ; wlj oxalic acid, etc.
  C=    C       1    0.14600   322168.0   ; wlj acrolein
  C=    C_2     1    0.14600   322168.0   ; wlj acrolein
  C=    C_3     1    0.14600   322168.0   ; wlj acrolein
  CT    C+      1    0.14600   445847.0   ; wlj- JACS 94, 4632 (1972)
  C+    HC      1    0.10840   445847.0   ; wlj-     -idem-
  CM    CT      1    0.15100   265265.6   ; wlj
  C=    CT      1    0.15100   265265.6   ; wlj
  CM    HC      1    0.10800   284512.0   ; wlj
  CM    H4      1    0.10800   307105.6   ; 
  C=    HC      1    0.10800   284512.0   ; wlj
  HC    C       1    0.10900   284512.0   ; wlj 7/96
  HC    C_2     1    0.10900   284512.0   ; wlj 7/96
  HC    C_3     1    0.10900   284512.0   ; wlj 7/96
  CT    CZ      1    0.14700   326352.0   ; wlj 9/98 do 11/98
  CA    CZ      1    0.14510   334720.0   ; wlj 9/98
  CY    CZ      1    0.14510   334720.0   ; wlj
  CZ    NZ      1    0.11570   543920.0   ; wlj 9/98
  CZ    CZ      1    0.12100   962320.0   ; do 11/98- JPOC, 9, 191 (1996)
  HC    CZ      1    0.10800   351456.0   ; do 01/99- JPOC, 9, 191 (1996)
  CM    N*      1    0.13650   374886.4   ; 
  CM    NA      1    0.13650   374886.4   ; copy from above for CytH+ (jtr 5-14-91)
  CN    NA      1    0.13800   358150.4   ; TRP
  CQ    HA      1    0.10800   307105.6   ; 
  CQ    H5      1    0.10800   307105.6   ; 
  CQ    NC      1    0.13240   420073.6   ; 
  CR    HA      1    0.10800   307105.6   ; 
  CR    H5      1    0.10800   307105.6   ; 
  CR    NA      1    0.13430   399153.6   ; HIS
  CR    NB      1    0.13350   408358.4   ; HIS(MOD)
  CT    CT      1    0.15290   224262.4   ; CHARMM 22 parameter file
  CT    CT_2    1    0.15290   224262.4   ; AA Calpha
  CT    CT_3    1    0.15290   224262.4   ; Pro CD
  CT    CT_4    1    0.15290   224262.4   ; Trifluoroethanol
  CT    HC      1    0.10900   284512.0   ; CHARMM 22 parameter file
  CT_2  HC      1    0.10900   284512.0   ; AA Calpha
  CT_3  HC      1    0.10900   284512.0   ; Pro CD
  CT_4  HC      1    0.10900   284512.0   ; Trifluoroethanol
  CT_3  N       1    0.14490   282001.6   ; Pro CD
  CT_3  NT      1    0.14490   282001.6   ; Pro CD
  CT    N       1    0.14490   282001.6   ; 
  CT_2  N       1    0.14490   282001.6   ; AA Calpha
  CT_2  NT      1    0.14480   319657.6   ; -idem-
  CT    NC      1    0.14490   282001.6   ; wj azide
  CY    N       1    0.14490   282001.6   ; wj
  CT    N*      1    0.14750   282001.6   ; 
  CT    NA      1    0.14750   282001.6   ; copy from above for CytH+ (jtr 5-14-91)
  CT    N2      1    0.14630   282001.6   ; ARG(OL)
  CT    N3      1    0.14710   307105.6   ; LYS(OL)
  CT_2  N3      1    0.14710   307105.6   ; AA Calpha
  CT_3  N3      1    0.14710   307105.6   ; Pro CD
  CT    OH      1    0.14100   267776.0   ; 
  CT_4  OH      1    0.14100   267776.0   ; ifluoroethanol
  NT    OH      1    0.14500   267776.0   ; wlj
  NT    OS      1    0.14500   267776.0   ; wlj
  N     OH      1    0.13800   334720.0   ; wlj
  CT    OS      1    0.14100   267776.0   ; 
  CT    S       1    0.18100   185769.6   ; CYX(OL)
  CY    S       1    0.18100   185769.6   ; wj
  CR    S       1    0.17600   209200.0   ; wlj
  CW    S       1    0.17400   209200.0   ; wlj
  CA    SH      1    0.17400   209200.0   ; wlj
  CT    SH      1    0.18100   185769.6   ; CYS(OL)
  CT    Cl      1    0.17810   205016.0   ; wlj- from MM2 (Tet 31, 1971 (75))
  CA    Cl      1    0.17250   251040.0   ; wlj
  CM    Cl      1    0.17250   251040.0   ; wlj
  C     Cl      1    0.17900   251040.0   ; wlj
  C_2   Cl      1    0.17900   251040.0   ; wlj
  C_3   Cl      1    0.17900   251040.0   ; wlj
  CZ    Cl      1    0.16370   276144.0   ; wlj
  CT    Br      1    0.19450   205016.0   ; wlj
  CA    Br      1    0.18700   251040.0   ; wlj
  CM    Br      1    0.19000   251040.0   ; wlj
  C     Br      1    0.19800   251040.0   ; 
  C_2   Br      1    0.19800   251040.0   ; 
  C_3   Br      1    0.19800   251040.0   ; 
  CZ    Br      1    0.17840   276144.0   ; wlj
  CA    I       1    0.20800   230120.0   ; wlj
  CV    HA      1    0.10800   307105.6   ; 
  CV    H4      1    0.10800   307105.6   ; 
  CV    NB      1    0.13940   343088.0   ; ADE,GUA,HIS
  CW    NB      1    0.13940   343088.0   ; 
  CW    H4      1    0.10800   307105.6   ; 
  CW    HA      1    0.10800   307105.6   ; pyrrole- wlj
  CW    NA      1    0.13810   357313.6   ; TRP,HIS
  CW    N       1    0.13810   357313.6   ; 
  CY    CY      1    0.15090   217568.0   ; cyclopropanes- wlj
  CY    CT      1    0.15100   234304.0   ; -idem-
  CY    HC      1    0.10880   284512.0   ; -idem-
  H     N       1    0.10100   363171.2   ; 
  H     N3      1    0.10100   363171.2   ; 
  H     N*      1    0.10100   363171.2   ; 
  H     N2      1    0.10100   363171.2   ; URA,GUA,HIS
  H     NA      1    0.10100   363171.2   ; URA,GUA,HIS
  H     NT      1    0.10100   363171.2   ; 
  H3    N2      1    0.10100   363171.2   ; ADE,GUA,CYT,GLN,ASN,ARG
  H3    N3      1    0.10100   363171.2   ; LYS(OL)
  HO    OH      1    0.09450   462750.4   ; SUG(OL) wlj mod 0.96-> 0.945
  HO    OS      1    0.09450   462750.4   ; SUG(OL)      6/6/94
  HS    SH      1    0.13360   229283.2   ; CYS(OL)
  LP    S       1    0.06790   502080.0   ; 
  LP    SH      1    0.06790   502080.0   ; 
  O2    P       1    0.14800   439320.0   ; SUG(OL)
  O     P       1    0.14800   439320.0   ; 
  OH    P       1    0.16100   192464.0   ; SUG(OL)
  OS    P       1    0.16100   192464.0   ; SUG(OL)
  CT    P       1    0.18430   177401.6   ; wlj 11/95 MM3 based JACS 114, 8536 (92)
  CA    P       1    0.17800   184096.0   ; 
  CT    P+      1    0.18200   177401.6   ; wlj 9/97
  S     S       1    0.20380   138908.8   ; CYX(OL)  SCHERAGA
  CT    C3      1    0.15260   217568.0   ; Added DSM (from C3-CH)
  CA    NB      1    0.13910   346435.2   ; Added DSM (from CB-NB)
  CA    N       1    0.13810   357313.6   ; Added DSM (from GUA)
  CB    CT      1    0.15100   265265.6   ; Added DSM (from CA-CT)
  CT    F       1    0.13320   307105.6   ; PAK CT-F for CHF3 (emd 5-09-94)
  CA    F       1    0.13540   351456.0   ; wlj
  CM    F       1    0.13400   351456.0   ; wlj
  CZ    F       1    0.12790   376560.0   ; wlj
  C     F       1    0.13570   351456.0   ; wlj
  C_2   F       1    0.13570   351456.0   ; wlj
  C_3   F       1    0.13570   351456.0   ; wlj
  CT    CO      1    0.15290   224262.4   ; =CT-CT- wd 3/95
  OH    CO      1    0.13800   267776.0   ; =CO-OS- wd 3/96
  HC    CO      1    0.10900   284512.0   ; =CT-HC- wd 3/95
  SY    C3      1    0.18100   185769.6   ; 
  SY    CA      1    0.17700   284512.0   ; 
  SY    OY      1    0.14400   585760.0   ; 
  SZ    OY      1    0.15300   585760.0   ; 
  SY    N       1    0.16700   363171.2   ; 
  SY    CT      1    0.17700   284512.0   ; 
  SZ    CT      1    0.17900   284512.0   ; 
  U     OU      1    0.18000   418400.0   ; J Phys Chem 97, 5685 (1993)
  CA    S       1    0.17600   209200.0   ; thioanisole
  CM    S       1    0.17600   209200.0   ;
  CM    CY      1    0.15100   265265.6   ;
  CY    NT      1    0.14480   319657.6   ;
  SY    NT      1    0.17700   284512.0   ;
  C     NT      1    0.15220   265265.6   ;
  C_2   NT      1    0.15220   265265.6   ;
  C_3   NT      1    0.15220   265265.6   ;
  C     CW      1    0.14900   334720.0   ;
  C_2   CW      1    0.14900   334720.0   ;
  C_3   CW      1    0.14900   334720.0   ;

[ constrainttypes ]
; this section is implemented manually from bond & angle values
; account for larger inertia with heavy hydrogens
; no heavy hydrogens.
; constraints for the rigid NH3 groups
 MNH3     CT 2    0.158255
 MNH3   CT_2 2    0.158255
 MNH3   MNH3 2    0.080236
; constraints for rigid umbrella-shaped NH2 group
 MNH2     CT 2    0.152820
 MNH2   CT_2 2    0.152820
 MNH2   MNH2 2    0.067542
; constraints for 1st type rigid CH3 (angle *-CT-HC is 109.5)
 MCH3A     C 2    0.166040
 MCH3A   C_2 2    0.166040
 MCH3A    CW 2    0.164312
 MCH3A    CV 2    0.164312
 MCH3A    CS 2    0.163448
 MCH3A    CA 2    0.164888
 MCH3A    CB 2    0.164888
 MCH3A     N 2    0.159040
 MCH3A     S 2    0.193874
 MCH3A MCH3A 2    0.092160
; constraints for 2nd type rigid CH3 (angle *-CT-HC is 110.7)
 MCH3B    CT 2    0.167031
 MCH3B  CT_2 2    0.167031
 MCH3B  CT_3 2    0.167031
 MCH3B    CO 2    0.167031
 MCH3B MCH3B 2    0.091456
; angle-derived constraints for OH and SH groups in proteins
; The constraint A-C is calculated from the angle A-B-C and bonds A-B, B-C.
  N       HO 2    0.18682  
  C       HO 2    0.19393
  CA      HO 2    0.19393
  CT      HO 2    0.19305
  CO      HO 2    0.19039
  CT      HS 2    0.23593
  CA      HS 2    0.23018

[ angletypes ]
;  i    j    k  func       th0       cth
  HW     OW     HW      1   109.500    627.600   ; For TIP4F Water - wj 1/98
  HW     OW     LP      1    54.750    418.400   ; For TIP4F Water - wj 1/98
  OU     U      OU      1   180.000   1255.200   ; J Phys Chem 97, 5685 (1993)
  HC     C*     CW      1   126.800    292.880   ; 
  HC     C*     CB      1   126.800    292.880   ; 
  HC     CS     CW      1   126.800    292.880   ; 
  HC     CS     CB      1   126.800    292.880   ; 
  HA     CA     CW      1   126.900    292.880   ; wlj - pyrrole
  HC     C=     CW      1   122.000    292.880   ; wlj
  HA     CW     CA      1   130.700    292.880   ; wlj
  HA     CW     C=      1   130.700    292.880   ; wlj
  HA     CW     NA      1   121.600    292.880   ; wlj
  CT     CW     NA      1   121.600    585.760   ; wlj
  C!     CW     NA      1   121.600    585.760   ; wlj
  CT     CW     OS      1   121.600    585.760   ; wlj
  C!     CW     OS      1   121.600    585.760   ; wlj
  CA     CW     NA      1   121.600    585.760   ; wlj
  HA     CW     CV      1   130.700    292.880   ; wlj - imidazole
  HA     CV     CW      1   128.200    292.880   ; wlj
  HC     CT     CZ      1   108.500    292.880   ; wlj
  CT     CT     CR      1   114.000    527.184   ; 
  CT     CT     CZ      1   112.700    488.273   ; wlj
  CT     CZ     CZ      1   180.000   1255.200   ; do 11/98 - JPOC, 9, 191(1996)
  CA     CZ     CZ      1   180.000   1338.880   ; wlj
  HC     CZ     CZ      1   180.000    937.216   ; do 1/99  - JPOC, 9, 191(1996)
  CA     CA     CZ      1   120.000    585.760   ; wlj
  CA     CA     CR      1   120.000    527.184   ; 
  CA     CA     CX      1   120.000    711.280   ; 
  CA     CR     NB      1   111.000    585.760   ; wlj
  CT     CZ     NZ      1   180.000   1255.200   ; wlj
  N2     CZ     NZ      1   180.000   1255.200   ; wlj
  CA     CZ     NZ      1   180.000   1255.200   ; wlj
  CT     CX     NA      1   121.600    585.760   ; jtr - copy from CT-CW-NA for HIP
  HA     CX     CX      1   130.700    292.880   ; jtr - copy from HA-CW-CV for HIP
  CX     CX     NA      1   106.300    585.760   ; jtr - copy from CV-CW-NA for HIP
  CX     NA     CR      1   109.800    585.760   ; jtr - copy from CW-NA-CR for HIP
  C3     C      N       1   116.600    585.760   ; ACET(OL)        BENEDETTI
  C3     C      O       1   120.400    669.440   ; ACET(OL)
  C3     C      O_2     1   120.400    669.440   ; ACET(OL)
  C3     C      O_3     1   120.400    669.440   ; ACET(OL)
  C3     C_2    O_2     1   120.400    669.440   ; ACET(OL)
  C3     C_3    O2      1   117.000    585.760   ; GLU(OL)          SCH JPC 79,2379
  CA     C      CA      1   120.000    711.280   ; TYR(OL)         GELIN
  CA     C_2    CA      1   120.000    711.280   ; TYR(OL)         GELIN
  CA     C      OH      1   120.000    585.760   ; TYR(OL)        GELIN
  CA     CA     O       1   120.000    585.760   ; 
  CA     CA     OH      1   120.000    585.760   ; 
  CA     CA     SH      1   120.000    585.760   ; wlj
  CA     CA     OS      1   120.000    585.760   ; wlj
  CM     CM     OS      1   123.000    585.760   ; wlj
  C=     CM     OS      1   123.000    585.760   ; wlj
  CM     CM     OH      1   123.000    585.760   ; wlj
  C=     CM     OH      1   123.000    585.760   ; wlj
  CB     C      NA      1   111.300    585.760   ; GUA
  CB     C_2    NA      1   111.300    585.760   ; GUA
  CB     C      O       1   128.800    669.440   ; GUA
  CB     C      O_2     1   128.800    669.440   ; GUA
  CB     C      O_3     1   128.800    669.440   ; GUA
  CB     C_2    O_2     1   128.800    669.440   ; GUA
  CB     C      N       1   111.300    585.760   ; wlj
  CS     C      O       1   128.200    669.440   ; wj
  CS     C      O_2     1   128.200    669.440   ; wj
  CS     C      O_3     1   128.200    669.440   ; wj
  CS     C_2    O_2     1   128.200    669.440   ; wj
  CM     C      NA      1   114.100    585.760   ; THY
  CM     C_2    NA      1   114.100    585.760   ; THY
  CM     C      O       1   125.300    669.440   ; THY
  CM     C      O_2     1   125.300    669.440   ; THY
  CM     C      O_3     1   125.300    669.440   ; THY
  CM     C_2    O_2     1   125.300    669.440   ; THY
  CM     C      C       1   117.200    669.440   ; (JP 1-6-91)
  CM     C      C_2     1   117.200    669.440   ; (JP 1-6-91)
  CM     C      C_3     1   117.200    669.440   ; (JP 1-6-91)
  CM     C_2    C       1   117.200    669.440   ; (JP 1-6-91)
  CM     C_2    C_2     1   117.200    669.440   ; (JP 1-6-91)
  CM     C_2    C_3     1   117.200    669.440   ; (JP 1-6-91)
  CM     C      OH      1   108.000    585.760   ; 
  C=     C      O       1   124.000    669.440   ; wlj
  C=     C      O_2     1   124.000    669.440   ; wlj
  C=     C      O_3     1   124.000    669.440   ; wlj
  C=     C_2    O_2     1   124.000    669.440   ; wlj
  C=     C      OH      1   108.000    585.760   ; 
  C=     C      HC      1   116.000    669.440   ; wlj
  C=     C_2    HC      1   116.000    669.440   ; wlj
  CT     C      N       1   116.600    585.760   ; 
  CT_2   C      N       1   116.600    585.760   ; 
  CA     C      N       1   115.500    585.760   ; wlj 8/97 benzamide
  CM     C      N       1   115.500    585.760   ; wlj
  CT     C      O       1   120.400    669.440   ; 
  CT     C      O_2     1   120.400    669.440   ; 
  CT     C      O_3     1   120.400    669.440   ; 
  CT     C_2    O_2     1   120.400    669.440   ; 
  CT_2   C      O       1   120.400    669.440   ; 
  CT_2   C      O_2     1   120.400    669.440   ; 
  CT_2   C      O_3     1   120.400    669.440   ; 
  CT_2   C_2    O_2     1   120.400    669.440   ; 4
  CA     C      O       1   120.400    669.440   ; wlj
  CA     C      O_2     1   120.400    669.440   ; wlj
  CA     C      O_3     1   120.400    669.440   ; wlj
  CA     C_2    O_2     1   120.400    669.440   ; wlj
  CT     NO     ON      1   117.500    669.440   ; wlj  nitro
  CA     NO     ON      1   117.500    669.440   ; wlj  nitro
  CT     CT     NO      1   111.100    527.184   ; wlj  nitro
  HC     CT     NO      1   105.000    292.880   ; wlj  nitro
  CA     CA     NO      1   120.000    711.280   ; wlj  nitro
  HC     C      N       1   114.000    334.720   ; wlj  
  HC     C      OS      1   115.000    334.720   ; -idem-
  HC     C_2    OS      1   115.000    334.720   ; -idem-
  HC     C      OH      1   115.000    334.720   ; -idem-
  O      C      HC      1   123.000    292.880   ; wlj
  O_2    C      HC      1   123.000    292.880   ; wlj
  O_3    C      HC      1   123.000    292.880   ; wlj
  O_2    C_2    HC      1   123.000    292.880   ; wlj
  NC     C      HC      1   122.000    292.880   ; wlj
  NC     C_2    HC      1   122.000    292.880   ; wlj
  CT     C      OH      1   108.000    585.760   ; RCOOH  wlj 2/15/95
  CT_2   C      OH      1   108.000    585.760   ; 
  CT     C      CT      1   116.000    585.760   ; wlj 7/96
  CT     C_2    CT      1   116.000    585.760   ; wlj 7/96
  CT     C      CA      1   116.000    585.760   ; wlj
  CT     C_2    CA      1   116.000    585.760   ; wlj
  C=     C      CT      1   116.000    585.760   ; wlj
  C=     C_2    CT      1   116.000    585.760   ; wlj
  CT     C_3    O2      1   117.000    585.760   ; GLU(OL)     SCH JPC 79,2379
  CT_2   C_3    O2      1   117.000    585.760   ; GLU(OL)     SCH JPC 79,2379
  CT     CT     Cl      1   109.800    577.392   ; wlj - from MM2
  C      CT     Cl      1   109.800    577.392   ; wlj
  C      CT_2   Cl      1   109.800    577.392   ; 
  CA     CA     Cl      1   120.000    627.600   ; 
  CM     CM     Cl      1   121.500    627.600   ; 
  Cl     CM     HC      1   114.000    502.080   ; 
  Cl     CT     Cl      1   111.700    652.704   ; 
  HC     CT     Cl      1   107.600    426.768   ; 
  CT     CT     Br      1   110.000    577.392   ; 
  C      CT     Br      1   109.800    577.392   ; 
  C_2    CT     Br      1   109.800    577.392   ; 
  C_3    CT     Br      1   109.800    577.392   ; 
  CT     C      Cl      1   109.000    627.600   ; 
  CT     C_2    Cl      1   109.000    627.600   ; wlj
  CT     C      Br      1   109.000    627.600   ; wlj
  CT     C_2    Br      1   109.000    627.600   ; wlj
  O      C      Cl      1   119.000    627.600   ; wlj
  O_2    C      Cl      1   119.000    627.600   ; wlj
  O_3    C      Cl      1   119.000    627.600   ; wlj
  O_2    C_2    Cl      1   119.000    627.600   ; wlj
  O      C      Br      1   119.000    627.600   ; wlj
  O_2    C      Br      1   119.000    627.600   ; wlj
  O_3    C      Br      1   119.000    627.600   ; wlj
  O_2    C_2    Br      1   119.000    627.600   ; wlj
  CA     CA     Br      1   120.000    627.600   ; wlj
  CM     CM     Br      1   120.000    627.600   ; wlj
  Br     CM     HC      1   114.000    502.080   ; wlj
  Br     CT     Br      1   111.700    652.704   ; wlj
  HC     CT     Br      1   107.600    426.768   ; wlj
  CA     CA     I       1   120.000    627.600   ; wlj
  CA     CA     F       1   120.000    669.440   ; wlj
  CM     CM     F       1   121.500    669.440   ; wlj
  C      CM     F       1   121.500    669.440   ; wlj
  F      CM     HC      1   112.000    418.400   ; wlj
  F      CM     F       1   108.000    669.440   ; wlj
  F      C      O       1   121.000    669.440   ; wlj
  F      C      O_2     1   121.000    669.440   ; wlj
  F      C      O_3     1   121.000    669.440   ; wlj
  F      C_2    O_2     1   121.000    669.440   ; wlj
  F      C      CT      1   111.000    669.440   ; wlj
  F      C_2    CT      1   111.000    669.440   ; wlj
  N      C      O       1   122.900    669.440   ; AA(OL)
  N      C      O_2     1   122.900    669.440   ; AA(OL)
  N      C      O_3     1   122.900    669.440   ; AA(OL)
  N      C_2    O_2     1   122.900    669.440   ; AA(OL)
  N      C      N       1   114.200    585.760   ; copy from above for Urea (jtr 5-14-91)
  N      C_2    N       1   114.200    585.760   ; copy from above for Urea (jtr 5-14-91)
  N*     C      NA      1   115.400    585.760   ; URA
  N*     C_2    NA      1   115.400    585.760   ; URA
  N*     C      NC      1   118.600    585.760   ; CYT
  N*     C_2    NC      1   118.600    585.760   ; CYT
  NA     C      NA      1   118.600    585.760   ; copy from above for CytH+ (jtr 5-14-91)
  NA     C_2    NA      1   118.600    585.760   ; copy from above for CytH+ (jtr 5-14-91)
  N*     C      O       1   120.900    669.440   ; URA,CYT
  N*     C      O_2     1   120.900    669.440   ; URA,CYT
  N*     C      O_3     1   120.900    669.440   ; URA,CYT
  N*     C_2    O_2     1   120.900    669.440   ; URA,CYT
  NA     C      O       1   120.600    669.440   ; URA(2),GUA
  NA     C      O_2     1   120.600    669.440   ; URA(2),GUA
  NA     C      O_3     1   120.600    669.440   ; URA(2),GUA
  NA     C_2    O_2     1   120.600    669.440   ; URA(2),GUA
  NC     C      O       1   122.500    669.440   ; CYT
  NC     C      O_2     1   122.500    669.440   ; CYT
  NC     C      O_3     1   122.500    669.440   ; CYT
  NC     C_2    O_2     1   122.500    669.440   ; CYT
  NC     C      NA      1   118.600    585.760   ; 
  NC     C_2    NA      1   118.600    585.760   ; 
  NA     CM     H4      1   119.100    292.880   ; 
  N      CA     HA      1   119.100    292.880   ; wlj
  ON     NO     ON      1   125.000    669.440   ; wlj  nitro
  O_3    C      OH      1   121.000    669.440   ; RCOOH  wlj 2/15/95
  O2     C_3    O2      1   126.000    669.440   ; GLU(OL)      SCH JPC 79,2379
  CB     C*     CT      1   128.600    585.760   ; TRP(OL)
  CB     C*     CW      1   106.400    711.280   ; TRP(OL)
  CT     C*     CW      1   125.000    585.760   ; TRP(OL)
  CB     CS     CT      1   128.600    585.760   ; 
  CB     CS     CW      1   106.400    711.280   ; 
  CT     CS     CW      1   125.000    585.760   ; TRP(OL)
  CT     CT     NT      1   109.470    470.281   ; wlj - MM3 based - JACS 112, 8314 (90)
  C3     CT     NT      1   109.470    470.281   ; wlj - MM3 based - JACS 112, 8314 (90)
  CT     CT_2   NT      1   109.470    470.281   ;
  C      CA     CA      1   120.000    711.280   ; TYR(OL)
  C_2    CA     CA      1   120.000    711.280   ; TYR(OL)
  C_3    CA     CA      1   120.000    711.280   ; TYR(OL)
  C      CA     HA      1   120.000    292.880   ; 
  C_2    CA     HA      1   120.000    292.880   ; 
  C_3    CA     HA      1   120.000    292.880   ; 
  CA     CA     CA      1   120.000    527.184   ; PHE(OL)
  CA     C!     CA      1   120.000    527.184   ; wlj
  CA     C!     C!      1   120.000    527.184   ; wlj
  CA     CA     C!      1   120.000    527.184   ; wlj
  CA     C!     CR      1   120.000    527.184   ; wlj
  CA     C!     CS      1   120.000    527.184   ; wlj
  CA     C!     CW      1   120.000    527.184   ; wlj
  CA     C!     CU      1   120.000    527.184   ; wlj
  CA     C!     CV      1   120.000    527.184   ; wlj
  CA     CA     CB      1   120.000    527.184   ;  TRP(OL)
  CA     CA     CN      1   120.000    711.280   ; TRP(OL)
  CA     CA     CM      1   124.000    585.760   ; wlj/mp
  CA     CM     CT      1   119.700    711.280   ; wlj/mp
  CA     CM     C=      1   117.000    711.280   ; 
  CA     CA     CT      1   120.000    585.760   ; PHE(OL)
  CA     CA     NT      1   120.100    585.760   ; wlj/rr anilines
  CA     CA     HA      1   120.000    292.880   ; 
  C!     CA     HA      1   120.000    292.880   ; wlj
  CT     NC     CQ      1   118.600    585.760   ; 
  CT     NC     NZ      1   120.000    585.760   ; wlj azide
  NC     NZ     NZ      1   180.000    836.800   ; wlj azide
  CT     CT     NC      1   109.000    543.920   ; wlj azide
  NC     CA     HA      1   116.000    292.880   ; wlj 12/96 based on pyridine
  CA     CA     NC      1   124.000    585.760   ; wlj        -idem-
  CA     C!     NC      1   124.000    585.760   ; wlj        -idem- 
  C!     CA     NC      1   124.000    585.760   ; wlj        -idem- 
  C!     C!     NC      1   124.000    585.760   ; wlj        -idem-  
  CA     NC     CA      1   117.000    585.760   ; wlj        -idem-  
  CA     NC     C!      1   117.000    585.760   ; wlj        -idem-  
  CA     NC     CY      1   125.800    585.760   ; wlj
  CA     CA     CW      1   107.400    585.760   ; wlj  1/97 based on pyrrole
  CV     NA     H       1   120.000    292.880   ; 
  CW     NA     CW      1   109.800    585.760   ; wlj       -idem-  
  CW     NA     CT      1   125.800    585.760   ;   
  CV     CW     NA      1   106.300    585.760   ; wlj  1/97 based on imidazole
  CV     CW     N       1   106.300    585.760   ; wlj imidazole
  CW     CV     NB      1   111.000    585.760   ; wlj       -idem-
  CW     NA     CR      1   109.800    585.760   ; wlj       -idem-
  CB     NA     CR      1   109.800    585.760   ; wlj
  CW     C=     C=      1   106.000    292.880   ; wlj
  CA     NA     CK      1   109.800    585.760   ; wlj
  NC     CA     CT      1   116.000    585.760   ; wlj
  NC     CQ     CT      1   115.500    585.760   ; wlj
  NC     CQ     O       1   122.500    669.440   ; 
  NB     CV     CT      1   124.500    585.760   ; wlj
  CA     CV     NB      1   111.000    585.760   ; wlj
  CA     NC     NC      1   117.000    585.760   ; wlj  pyridazine
  CT     NC     NC      1   117.000    585.760   ; wlj  azo
  OS     CW     CS      1   110.600    585.760   ; wlj  
  OS     CW     CA      1   110.600    585.760   ; wlj  
  OS     CW     C=      1   110.000    585.760   ; wlj  furan
  CW     OS     CW      1   106.500    585.760   ; wlj  furan
  CW     OS     CB      1   106.500    585.760   ; wlj  furan
  CR     OS     CB      1   106.500    585.760   ; wlj  furan
  OS     CW     HA      1   113.400    292.880   ; wlj  furan
  S      CW     HA      1   113.400    292.880   ; wlj
  S      CR     CA      1   111.000    585.760   ; wlj
  S      CR     HA      1   113.400    292.880   ; wlj
  S      CW     CV      1   111.000    585.760   ; wlj
  S      CW     CS      1   111.000    585.760   ; wlj
  S      CW     N       1   115.000    585.760   ; 
  NA     CW     CS      1   107.700    585.760   ; wj/nm
  CW     CS     CS      1   107.300    585.760   ; -idem-
  CW     CS     HA      1   125.700    292.880   ; -idem-
  CW     CS     C!      1   125.700    585.760   ; -idem-
  CS     CW     C!      1   132.100    585.760   ; -idem-
  CS     CS     C!      1   127.500    585.760   ; -idem-
  CS     CW     HA      1   132.100    292.880   ; -idem-
  CS     CW     CT      1   132.100    585.760   ; -idem-
  CS     CW     CA      1   132.100    585.760   ; -idem-
  CS     CS     HA      1   127.500    292.880   ; -idem-
  CU     NB     NA      1   104.100    585.760   ; -idem-
  CW     NB     NA      1   104.100    585.760   ; -idem-
  NB     CU     HA      1   118.900    292.880   ; -idem-
  NB     CU     CA      1   111.900    585.760   ; -idem-
  NB     CU     CT      1   118.900    585.760   ; -idem-
  NB     CW     CT      1   118.900    585.760   ; -idem-
  NB     CW     S       1   115.000    585.760   ; 
  CU     CS     CW      1   103.800    585.760   ; -idem-
  CW     CS     CW      1   103.800    585.760   ; -idem-
  NB     CU     CS      1   111.900    585.760   ; -idem-
  NB     CW     CS      1   111.900    585.760   ; -idem-
  CA     CU     HA      1   128.600    292.880   ; -idem-
  CU     CA     HA      1   128.200    292.880   ; -idem-
  CU     CA     CW      1   103.800    585.760   ; -idem-
  CU     NB     OS      1   105.300    585.760   ; -idem-
  NB     NA     CW      1   113.100    468.608   ; -idem-
  CB     NA     NB      1   113.100    468.608   ; -idem-
  CR     NA     CT      1   125.800    585.760   ; 
  CR     NA     NB      1   113.100    468.608   ; -idem-
  NB     NA     H       1   118.400    468.608   ; -idem-
  NB     NA     CA      1   118.400    585.760   ; -idem-
  NB     NA     CT      1   118.400    585.760   ; -idem-
  CW     OS     NB      1   108.900    585.760   ; -idem-
  NB     CR     OS      1   115.000    585.760   ; -idem-
  NB     CR     S       1   115.000    585.760   ; -idem-
  CR     OS     CW      1   104.000    585.760   ; -idem-
  CV     CW     OS      1   108.000    585.760   ; -idem-
  HA     CR     OS      1   117.000    292.880   ; -idem-
  OS     CM     HC      1   114.500    292.880   ; 
  CB     CA     HA      1   120.000    292.880   ; 
  CB     CA     N2      1   123.500    585.760   ; ADE
  CB     CA     NC      1   117.300    585.760   ; ADE
  CM     CA     N2      1   120.100    585.760   ; 
  CA     CA     N2      1   120.100    585.760   ; wlj
  CM     CA     NC      1   121.500    585.760   ; 
  CM     CA     NA      1   121.500    585.760   ; copy from above for CytH+ (jtr 5-14-91)
  CN     CA     HA      1   120.000    292.880   ; 
  NY     CA     NY      1   111.800    585.760   ; jtr: neutral ARG
  NZ     CA     NY      1   124.100    585.760   ; jtr: neutral ARG
  CA     NZ     H       1   113.000    292.880   ; jtr: neutral ARG
  CA     NZ     H3      1   113.000    292.880   ; jtr: neutral ARG
  CA     NY     H       1   112.500    418.400   ; jtr: neutral ARG
  CA     NY     H3      1   112.500    418.400   ; jtr: neutral ARG
  CA     NY     CT      1   120.500    418.400   ; jtr: neutral ARG
  H      NY     H       1   106.400    364.845   ; jtr: neutral ARG
  H3     NY     H3      1   106.400    364.845   ; jtr: neutral ARG
  CT     NY     H       1   109.500    292.880   ; jtr: neutral ARG
  CT     NY     H3      1   109.500    292.880   ; jtr: neutral ARG
  CT     CT     NY      1   111.200    669.440   ; jtr: neutral ARG
  HC     CT     NY      1   109.500    292.880   ; jtr: neutral ARG
  N2     CA     N2      1   120.000    585.760   ; ARG(OL)
  N2     CA     NA      1   116.000    585.760   ; GUA
  N2     CA     NC      1   119.300    585.760   ; ADE,GUA
  N2     CQ     NC      1   119.300    585.760   ; wlj    
  N2     CQ     N       1   116.000    585.760   ; wlj
  NA     CA     NC      1   123.300    585.760   ; GUA
  C      CB     CB      1   119.200    711.280   ; GUA
  C_2    CB     CB      1   119.200    711.280   ; GUA
  C_3    CB     CB      1   119.200    711.280   ; GUA
  C      CB     NB      1   130.000    585.760   ; GUA
  C_2    CB     NB      1   130.000    585.760   ; GUA
  C_3    CB     NB      1   130.000    585.760   ; GUA
  N      CQ     NC      1   123.300    585.760   ; wlj
  C      CS     CW      1   130.000    585.760   ; wj
  C_2    CS     CW      1   130.000    585.760   ; wj
  C_3    CS     CW      1   130.000    585.760   ; wj
  C      CB     CW      1   130.000    585.760   ; wj
  C_2    CB     CW      1   130.000    585.760   ; wj
  C_3    CB     CW      1   130.000    585.760   ; wj
  C*     CB     CA      1   134.900    711.280   ; TRP(OL)
  CA     CB     CA      1   134.900    711.280   ; TRP(OL)
  C*     CB     CN      1   108.800    711.280   ; TRP(OL)
  CS     CB     CA      1   134.900    711.280   ;  
  CS     CB     CN      1   108.800    711.280   ;  
  CA     CB     CB      1   117.300    711.280   ; ADE
  CA     CB     CN      1   116.200    711.280   ;  TRP
  CA     CB     NB      1   132.400    585.760   ; ADE
  CB     CB     N*      1   106.200    585.760   ; GUA,ADE
  CB     CB     NA      1   106.200    585.760   ; wlj
  CS     CR     NA      1   106.200    585.760   ; wj
  CR     CS     CW      1   110.400    585.760   ; wj
  CB     CB     NC      1   127.700    585.760   ; GUA,ADE
  CB     CB     N       1   127.700    585.760   ; wj
  CS     CR     NC      1   127.700    585.760   ; wj
  N*     CB     NC      1   126.200    585.760   ; GUA,ADE
  NA     CB     NC      1   126.200    585.760   ; wlj
  NB     CB     N       1   126.200    585.760   ; wj
  NB     CR     N       1   126.200    585.760   ; wj
  NA     CR     NC      1   126.200    585.760   ; wj
  CT     CW     CV      1   130.700    585.760   ; jtr: HID CB-CG-CD2
  CT     CV     CW      1   130.700    585.760   ; jtr: HIE CB-CG-CD2
  CT     CX     CX      1   130.700    585.760   ; jtr: HIP CB-CG-CD2
  CT     CW     CW      1   120.000    585.760   ; 
  CW     CW     NA      1   120.000    585.760   ; 
  CA     CA     NA      1   108.700    585.760   ; TRP(OL)
  N*     CK     NB      1   113.900    585.760   ; 
  NA     CK     NB      1   113.900    585.760   ; wlj
  NA     CK     H5      1   123.050    292.880   ; 
  N*     CK     H5      1   123.050    292.880   ; 
  NB     CK     H5      1   123.050    292.880   ; 
  C      CM     C3      1   119.700    711.280   ; THY
  C_2    CM     C3      1   119.700    711.280   ; THY
  C_3    CM     C3      1   119.700    711.280   ; THY
  C      CM     CM      1   120.700    711.280   ; 
  C_2    CM     CM      1   120.700    711.280   ; 
  C_3    CM     CM      1   120.700    711.280   ; 
  C      CM     CT      1   119.700    585.760   ; 
  C_2    CM     CT      1   119.700    585.760   ; 
  C_3    CM     CT      1   119.700    585.760   ; 
  C      CA     CT      1   119.700    585.760   ; wlj
  C_2    CA     CT      1   119.700    585.760   ; wlj
  C_3    CA     CT      1   119.700    585.760   ; wlj
  C      CM     HC      1   119.700    292.880   ; 
  C_2    CM     HC      1   119.700    292.880   ; 
  C_3    CM     HC      1   119.700    292.880   ; 
  CA     CM     CM      1   117.000    711.280   ; 
  CA     CM     HC      1   123.300    292.880   ; 
  CM     CM     CT      1   124.000    585.760   ; wlj
  CM     C=     C=      1   124.000    585.760   ; wlj
  CM     C=     C       1   118.700    585.760   ; wlj
  CM     C=     C_2     1   118.700    585.760   ; wlj
  CM     C=     C_3     1   118.700    585.760   ; wlj
  CM     C=     CT      1   124.000    585.760   ; wlj
  C=     C=     CT      1   124.000    585.760   ; wlj
  CT     CM     C=      1   124.000    585.760   ; mwm
  CM     CT     CM      1   112.400    527.184   ; mwm
  CM     CT     OS      1   120.000    585.760   ; 
  CM     CT     OH      1   109.500    418.400   ; 
  CM     CM     HC      1   120.000    292.880   ; wlj
  CM     CM     H4      1   119.700    292.880   ; 
  CM     C=     HC      1   120.000    292.880   ; wlj
  C=     CM     HC      1   120.000    292.880   ; wlj
  C=     C=     HC      1   120.000    292.880   ; wlj
  C      C=     HC      1   119.700    292.880   ; 
  C_2    C=     HC      1   119.700    292.880   ;  
  C_3    C=     HC      1   119.700    292.880   ;  
  CT     C      HC      1   115.000    292.880   ; wlj
  CT     C_2    HC      1   115.000    292.880   ; wlj
  CA     C      HC      1   115.000    292.880   ; wlj
  CA     C_2    HC      1   115.000    292.880   ; wlj
  CT     CM     HC      1   117.000    292.880   ; wlj
  HC     CM     HC      1   117.000    292.880   ; wlj
  CT     CM     CT      1   130.000    585.760   ; wlj
  CT     C+     CT      1   120.000   1445.990   ; wlj JACS 94, 4632 (1972)
  CT     C+     HC      1   120.000   1204.992   ; wlj          -idem-
  CT     CT     C+      1   105.000    527.184   ; wlj
  HC     CT     C+      1   105.000    292.880   ; wlj
  CM     CM     N*      1   121.200    585.760   ; 
  CM     CM     NA      1   121.200    585.760   ; copy from above for CytH+ (jtr 5-14-91)
  HC     CM     N*      1   119.100    292.880   ; 
  HC     CM     NA      1   119.100    292.880   ; copy from above for CytH+ (jtr 5-14-91)
  CA     CN     CB      1   122.700    711.280   ; TRP
  CA     CN     NA      1   132.800    585.760   ; TRP(OL)
  CB     CA     CW      1   106.400    527.184   ; 
  CB     CA     CT      1   128.600    585.760   ; 
  CB     CN     NA      1   104.400    585.760   ; 
  HA     CQ     NC      1   115.450    292.880   ; 
  H5     CQ     NC      1   115.450    292.880   ; 
  NC     CQ     NC      1   129.100    585.760   ; 
  HA     CR     NA      1   120.000    292.880   ; 
  HA     CX     NA      1   120.000    292.880   ; jtr: HIP HD2-CD2-NE2
  HA     CR     NB      1   120.000    292.880   ; 
  HA     CK     N*      1   120.000    292.880   ; 
  HA     CK     NA      1   120.000    292.880   ; wlj
  HA     CK     NB      1   120.000    292.880   ; wlj
  NA     CR     NA      1   120.000    585.760   ; HISP(OL)
  NA     CR     NB      1   120.000    585.760   ; HIS(OL)
  NA     CR     CT      1   125.000    585.760   ; wlj
  NB     CR     CT      1   125.000    585.760   ; wlj
  NA     CR     SY      1   120.000    585.760   ; wlj
  NB     CR     SY      1   120.000    585.760   ; wlj
  C      CT     CT      1   111.100    527.184   ; AA
  C_2    CT     CT      1   111.100    527.184   ; AA
  C_3    CT     CT      1   111.100    527.184   ; AA
  C      CT     CT_2    1   111.100    527.184   ; AA
  C_2    CT     CT_2    1   111.100    527.184   ; AA
  C_3    CT     CT_2    1   111.100    527.184   ; AA
  C      CT_2   CT      1   111.100    527.184   ; AA
  C_2    CT_2   CT      1   111.100    527.184   ; AA
  C_3    CT_2   CT      1   111.100    527.184   ; AA
  CM     CT     CT      1   111.100    527.184   ; -idem- wlj
  CW     CT     HC      1   109.500    292.880   ; jtr: HID HB-CB-CG
  CV     CT     HC      1   109.500    292.880   ; jtr: HIE HB-CB-CG
  CX     CT     HC      1   109.500    292.880   ; jtr: HIP HB-CB-CG
  C      CT     HC      1   109.500    292.880   ; 
  C_2    CT     HC      1   109.500    292.880   ; 
  C_3    CT     HC      1   109.500    292.880   ; 
  C      CT_2   HC      1   109.500    292.880   ; 
  C_2    CT_2   HC      1   109.500    292.880   ; 
  C_3    CT_2   HC      1   109.500    292.880   ; 
  C      CT     N       1   110.100    527.184   ; AA     WORK DONE ON 6/23/82
  C_2    CT     N       1   110.100    527.184   ; AA     WORK DONE ON 6/23/82
  C_3    CT     N       1   110.100    527.184   ; AA     WORK DONE ON 6/23/82
  C      CT_2   N       1   110.100    527.184   ; AA     WORK DONE ON 6/23/82
  C_2    CT_2   N       1   110.100    527.184   ; AA     WORK DONE ON 6/23/82
  C_3    CT_2   N       1   110.100    527.184   ; AA     WORK DONE ON 6/23/82
  C      CT     NC      1   110.100    527.184   ; wj
  C_2    CT     NC      1   110.100    527.184   ; wj
  C_3    CT     NC      1   110.100    527.184   ; wj
  C*     CT     CT      1   115.600    527.184   ; TRP(OL)
  C*     CT     CT_2    1   115.600    527.184   ; TRP(OL)
  C*     CT     HC      1   109.500    292.880   ; 
  CS     CT     CT      1   115.600    527.184   ; wj
  CS     CT     HC      1   109.500    292.880   ; wj
  CA     CT     CT      1   114.000    527.184   ; PHE(OL)         SCH JPC  79,2379
  CA     CT     CT_2    1   114.000    527.184   ; PHE(OL)         SCH JPC  79,2379
  CA     CT     HC      1   109.500    292.880   ; 
  CW     CT     CT      1   114.000    527.184   ; jtr: HID CA-CB-CG
  CW     CT     CT_2    1   114.000    527.184   ; jtr: HID CA-CB-CG
  CV     CT     CT      1   114.000    527.184   ; jtr: HIE CA-CB-CG
  CV     CT     CT_2    1   114.000    527.184   ; jtr: HIE CA-CB-CG
  CX     CT     CT      1   114.000    527.184   ; jtr: HIP CA-CB-CG
  CX     CT     CT_2    1   114.000    527.184   ; jtr: HIP CA-CB-CG
  CM     CT     HC      1   109.500    292.880   ; 
  C=     CT     HC      1   109.500    292.880   ; wlj
  CT     CT     CT      1   112.700    488.273   ; CHARMM 22 parameter file
  CT_2   CT     CT      1   112.700    488.273   ; CHARMM 22 parameter file
  CT     CT_2   CT      1   112.700    488.273   ; CHARMM 22 parameter file
  CT     CT     CT_3    1   112.700    488.273   ; CHARMM 22 parameter file
  C3     CT     C3      1   109.500    334.720   ; 
  C3     CT     C       1   109.500    527.184   ; from CA-CT-CT 
  CT_2   CT     HC      1   110.700    313.800   ; CHARMM 22 parameter file
  CT     CT_2   HC      1   110.700    313.800   ; CHARMM 22 parameter file
  CT     CT     HC      1   110.700    313.800   ; CHARMM 22 parameter file
  CT     CT_3   HC      1   110.700    313.800   ; CHARMM 22 parameter file
  CT_3   CT     HC      1   110.700    313.800   ; CHARMM 22 parameter file
  CT     CT_4   HC      1   110.700    313.800   ; Trifluoroethanol
  CT     CT     N       1   109.700    669.440   ; ALA    JACS 94, 2657
  CT     CT_2   N       1   109.700    669.440   ; ALA    JACS 94, 2657
  CT     CT_3   N       1   109.700    669.440   ; Pro CD
  CT     CT_3   NT      1   109.700    669.440   ; Pro CD
  CT     CT     N*      1   109.500    418.400   ; 
  CT     CT     N2      1   111.200    669.440   ; ARG   JCP 76, 1439
  C      CT     N3      1   111.200    669.440   ; Amino terminal residues
  C_2    CT     N3      1   111.200    669.440   ; Amino terminal residues
  C_3    CT     N3      1   111.200    669.440   ; Amino terminal residues
  C      CT_2   N3      1   111.200    669.440   ; Amino terminal residues
  C_2    CT_2   N3      1   111.200    669.440   ; Amino terminal residues
  C_3    CT_2   N3      1   111.200    669.440   ; Amino terminal residues
  C      CT     NT      1   111.200    669.440   ; wlj
  C      CT_2   NT      1   111.200    669.440   ; wlj
  C_2    CT     NT      1   111.200    669.440   ; wlj
  C_3    CT     NT      1   111.200    669.440   ; wlj
  CA     CT     N       1   109.700    669.440   ; 
  CA     CT     NT      1   111.200    669.440   ; wlj
  CA     CT     NA      1   111.200    669.440   ; wlj
  CT     CT     NA      1   111.200    669.440   ; 
  CT     CA     N       1   109.700    669.440   ; MDDR 
  CT     CT     N3      1   111.200    669.440   ; LYS(OL)   JCP 76, 1439
  CT     CT_2   N3      1   111.200    669.440   ; LYS(OL)   JCP 76, 1439
  CT     CT_3   N3      1   111.200    669.440   ;  CD     
  CT     CT     OH      1   109.500    418.400   ; 
  CT_2   CT     OH      1   109.500    418.400   ; 
  CT     CT_4   OH      1   109.500    418.400   ; Trifluoroethanol
  CA     CT     OH      1   109.500    418.400   ; wlj
  CT     CT     OS      1   109.500    418.400   ; 
  CA     CT     OS      1   109.500    418.400   ; 
  CT     CT     S       1   114.700    418.400   ; CYX            SCHERAGA  JPC 79,1428
  CT_2   CT     S       1   114.700    418.400   ; CYX            SCHERAGA  JPC 79,1428
  CT     CT     SH      1   108.600    418.400   ; CYS
  CT_2   CT     SH      1   108.600    418.400   ; CYS
  CA     CT     S       1   114.700    418.400   ; wlj
  CW     CT     S       1   114.700    418.400   ; wlj
  CT     NT     H       1   109.500    292.880   ; 
  CT_3   NT     H       1   109.500    292.880   ; 
  CT_2   NT     H       1   109.500    292.880   ; 
  CA     NT     H       1   111.000    292.880   ; wlj/rr anilines
  CA     NT     CT      1   109.500    418.400   ; -idem-
  CT     NT     CT      1   107.200    433.462   ; wlj - MM3 based JACS 112, 8314 (90)
  CT     NT     C3      1   107.200    433.462   ; -idem-
  C3     NT     C3      1   107.200    433.462   ; -idem-
  HC     CT     HC      1   107.800    276.144   ; CHARMM 22 parameter file
  HC     CT_2   HC      1   107.800    276.144   ; CHARMM 22 parameter file
  HC     CT_3   HC      1   107.800    276.144   ; CHARMM 22 parameter file
  HC     CT_4   HC      1   107.800    276.144   ; Trifluoroethanol
  CY     CY     HC      1   117.200    313.800   ; cyclopropanes - wlj  10/97
  CY     CY     CY      1    60.000    251.040   ; -idem-
  CY     CY     CT      1   117.200    313.800   ; -idem-
  CY     CT     HC      1   110.700    313.800   ; -idem-
  HC     CY     HC      1   114.300    292.880   ; -idem-
  HC     CY     CT      1   114.300    292.880   ; -idem-
  CY     CY     NC      1    89.000    669.440   ; 
  HC     CY     NC      1   109.500    292.880   ; small rings
  HC     CY     N       1   108.000    292.880   ; -idem-
  CY     CY     N       1   126.000    313.800   ; -idem-
  HC     CY     S       1   108.000    313.800   ; -idem-
  CY     CY     S       1   128.000    460.240   ; -idem-
  CY     N      C       1   128.000    460.240   ; -idem-
  CY     N      H       1   113.000    334.720   ; -idem-
  CY     S      CT      1    94.000    518.816   ; -idem- 
  HC     CT     N       1   109.500    292.880   ; 
  HC     CT_2   N       1   109.500    292.880   ; 
  HC     CT_3   N       1   109.500    292.880   ; 
  HC     CT_3   NT      1   109.500    292.880   ; 
  HC     CT     N*      1   109.500    292.880   ; 
  HC     CT     NA      1   109.500    292.880   ; copy from above for CytH+ (jtr 5-14-91)
  HC     CT     N2      1   109.500    292.880   ; 
  HC     CT     N3      1   109.500    292.880   ; 
  HC     CT_2   N3      1   109.500    292.880   ; 
  HC     CT_3   N3      1   109.500    292.880   ; 
  HC     CT     NT      1   109.500    292.880   ; JACS 115, 9620 (93)
  HC     CT_2   NT      1   109.500    292.880   ; 
  HC     CT     NC      1   109.500    292.880   ; 
  HC     CT     OH      1   109.500    292.880   ; 
  C      CT     OH      1   109.500    418.400   ; 
  C_2    CT     OH      1   109.500    418.400   ; 
  C_3    CT     OH      1   109.500    418.400   ; 
  HC     CT_4   OH      1   109.500    292.880   ; fluoroethanol
  HC     CT     OS      1   109.500    292.880   ; SUG
  HC     CT     S       1   109.500    292.880   ; 
  HC     CT     P       1   109.500    343.088   ; wlj 11/95 MM3 based JACS 114, 8536 (92)
  CT     CT     P       1   109.500    359.824   ; -idem-
  CA     CT     P       1   109.500    359.824   ; -idem-
  CT     CT     P+      1   109.500    359.824   ; wlj 9/97
  CT     P+     CT      1   109.500    376.560   ; -idem- AMBER OS-P-OS
  HC     CT     P+      1   109.500    343.088   ; -idem-
  HC     CT     SH      1   109.500    292.880   ; 
  N*     CT     OS      1   109.500    418.400   ; 
  CW     CW     NB      1   120.000    585.760   ; 
  HA     CV     NB      1   120.000    292.880   ; 
  C*     CW     HA      1   120.000    292.880   ; 
  C*     CW     NA      1   108.700    585.760   ; TRP(OL)
  H4     CW     NA      1   120.000    292.880   ; 
  HA     CA     NA      1   120.000    292.880   ; 
  C      N      C3      1   121.900    418.400   ; 
  C      N      CT      1   121.900    418.400   ; 
  C      N      CT_2    1   121.900    418.400   ; 
  C      N      CT_3    1   121.900    418.400   ; 
  C      N      CA      1   121.900    418.400   ; wlj
  C      N      H       1   119.800    292.880   ; AA(OL)
  C3     N      H       1   118.400    317.984   ; 
  CT     N      CT      1   118.000    418.400   ; PRO(OL)         DETAR JACS 99,1232
  CT_2   N      CT      1   118.000    418.400   ; PRO(OL)         DETAR JACS 99,1232
  CT_2   N      CT_2    1   118.000    418.400   ; PRO(OL)         DETAR JACS 99,1232
  CT_3   N      CT      1   118.000    418.400   ; PRO(OL)         DETAR JACS 99,1232
  CT_3   N      CT_2    1   118.000    418.400   ; PRO(OL)         DETAR JACS 99,1232
  CT_3   NT     CT_2    1   118.000    418.400   ; PRO(OL)         DETAR JACS 99,1232
  CA     N      CT      1   118.000    418.400   ; wj
  CA     NC     CT      1   118.000    418.400   ; wj
  CT     N      H       1   118.400    317.984   ; 
  CT_2   N      H       1   118.400    317.984   ; 
  CT_3   N      H       1   118.400    317.984   ; 
  CT_3   N      H3      1   118.400    317.984   ; 
  H      N      H       1   120.000    292.880   ; ADE,CYT,GUA,GLN,ASN     **
  H      N2     H       1   113.000    292.880   ; wlj 
  H3     N      H3      1   120.000    292.880   ; ADE,CYT,GUA,GLN,ASN     **
  C      N*     CM      1   121.600    585.760   ;  
  C_2    N*     CM      1   121.600    585.760   ;    
  C_3    N*     CM      1   121.600    585.760   ;    
  C      NA     CM      1   121.600    585.760   ; copy from above for CytH+ (jtr 5-14-91)
  C_2    NA     CM      1   121.600    585.760   ; copy from above for CytH+ (jtr 5-14-91)
  C_3    NA     CM      1   121.600    585.760   ; copy from above for CytH+ (jtr 5-14-91)
  C      N*     CT      1   117.600    585.760   ; 
  C_2    N*     CT      1   117.600    585.760   ; 
  C_3    N*     CT      1   117.600    585.760   ; 
  C      N*     H       1   119.200    292.880   ; 
  C_2    N*     H       1   119.200    292.880   ; 
  C_3    N*     H       1   119.200    292.880   ; 
  C3     N*     CB      1   125.800    585.760   ; 9 methylated guan,aden
  C3     N*     CK      1   128.800    585.760   ; 
  CM     N*     CT      1   121.200    585.760   ; 
  CM     N*     H       1   119.200    292.880   ; 
  CM     NA     H       1   119.200    292.880   ; copy from above for CytH+ (jtr 5-14-91)
  C3     N2     CA      1   123.200    418.400   ; ARG(OL)
  CA     N2     CA      1   123.200    418.400   ;  
  CA     N2     CT      1   123.200    418.400   ; ARG(OL)
  CA     N2     CX      1   123.200    418.400   ; 
  N2     CX     NZ      1   180.000    585.760   ; 
  CA     N2     H       1   120.000    292.880   ; ARG(OL)
  CQ     N2     H       1   120.000    292.880   ; wlj
  CA     N2     H3      1   120.000    292.880   ; ADE,CYT,GUA,ARG
  CT     N2     H3      1   118.400    292.880   ; ARG(OL)
  CT     N2     H       1   118.400    292.880   ; 
  H3     N2     H3      1   120.000    292.880   ; ADE,CYT,GUA,GLN,ASN,ARG
  C3     N3     H3      1   109.500    292.880   ; 
  CT     N3     H3      1   109.500    292.880   ; LYS
  CT_2   N3     H3      1   109.500    292.880   ; LYS
  CT     N3     H       1   109.500    292.880   ; LYS
  CT_3   N3     H3      1   109.500    292.880   ; Pro CD
  CT_3   N3     H       1   109.500    292.880   ; Pro CD
  H3     N3     H3      1   109.500    292.880   ; LYS
  H      N3     H       1   109.500    292.880   ; LYS
  CT     N3     CT      1   113.000    418.400   ; proline j.phys chem 1979 p 2361
  CT_2   N3     CT_3    1   113.000    418.400   ; proline j.phys chem 1979 p 2361
  CT_2   N3     CT      1   113.000    418.400   ; proline j.phys chem 1979 p 2361
  C      NA     C       1   126.400    585.760   ; URA
  C      NA     C_2     1   126.400    585.760   ; URA
  C      NA     C_3     1   126.400    585.760   ; URA
  C_2    NA     C_2     1   126.400    585.760   ; URA
  C_2    NA     C_3     1   126.400    585.760   ; URA
  C_3    NA     C_3     1   126.400    585.760   ; URA
  C      N      C       1   126.400    585.760   ; wlj
  C      NA     CA      1   125.200    585.760   ; GUA
  C_2    NA     CA      1   125.200    585.760   ; GUA
  C_3    NA     CA      1   125.200    585.760   ; GUA
  C      N      CQ      1   125.200    585.760   ; wj
  C      NA     H       1   116.800    292.880   ; GUA,URA(2)
  C_2    NA     H       1   116.800    292.880   ; GUA,URA(2)
  C_3    NA     H       1   116.800    292.880   ; GUA,URA(2)
  CA     NA     H       1   118.000    292.880   ; GUA
  CQ     N      H       1   118.000    292.880   ; wlj
  CN     NA     CW      1   111.600    585.760   ; TRP(OL)
  CN     NA     H       1   123.100    292.880   ; TRP
  CR     NA     H       1   120.000    292.880   ; HIS(OL)
  CW     NA     H       1   120.000    292.880   ; HIS(OL)
  CX     NA     H       1   120.000    292.880   ; jtr HIP
  CB     N*     CK      1   105.400    585.760   ; 
  CB     N*     CT      1   125.800    585.760   ; 
  CB     N*     H       1   125.800    251.040   ; 
  CK     N*     CT      1   128.800    585.760   ; 
  CK     N*     H       1   128.800    251.040   ; 
  CB     NA     CK      1   105.400    585.760   ; wlj
  CB     NA     CT      1   125.800    585.760   ; wlj
  CB     NA     H       1   125.800    251.040   ; wlj
  CK     NA     CT      1   128.800    585.760   ; wlj
  CK     NA     H       1   128.800    251.040   ; wlj
  CB     NB     CK      1   103.800    585.760   ; 
  CR     NB     CV      1   110.000    585.760   ; HIS(OL) wlj 1/97
  CR     NB     CB      1   110.000    585.760   ; wlj
  CR     NB     CW      1   110.000    585.760   ; 
  C      NC     CA      1   120.500    585.760   ; CYT
  C_2    NC     CA      1   120.500    585.760   ; CYT
  C_3    NC     CA      1   120.500    585.760   ; CYT
  CA     NC     CB      1   112.200    585.760   ; GUA
  CA     NC     CQ      1   118.600    585.760   ; 
  CQ     NC     CQ      1   118.600    585.760   ; wlj 1,3,5-triazine
  CB     NC     CQ      1   111.000    585.760   ; 
  CR     NC     CQ      1   111.000    585.760   ; wj
  C3     NT     H       1   108.100    361.498   ; wlj MM3 based
  H      NT     H       1   106.400    364.845   ; wlj MM3 based
  H      N      OH      1   110.200    292.880   ; wlj
  C      N      OH      1   115.700    384.928   ; wlj
  N      OH     HO      1   105.400    410.032   ; wlj
  C      OH     HO      1   113.000    292.880   ; TYR(PHENOL)     HARMONY MEOH
  CA     OH     HO      1   113.000    292.880   ; 
  CM     OH     HO      1   109.000    292.880   ; wj
  C3     OH     HO      1   108.500    460.240   ; SUG,SER(OL,mod)
  CT     OH     HO      1   108.500    460.240   ;   
  CT_4   OH     HO      1   108.500    460.240   ; Trifluoroethanol
  HO     OH     P       1   108.500    376.560   ; SUG(OL)
  C      OS     C3      1   116.900    694.544   ; 
  C_2    OS     C3      1   116.900    694.544   ; 
  O      C      OS      1   123.400    694.544   ; J.Comp.Chem.1990,11,1181 for SKF8
  O      C_2    OS      1   123.400    694.544   ; J.Comp.Chem.1990,11,1181 for SKF8
  O_2    C_2    OS      1   123.400    694.544   ; J.Comp.Chem.1990,11,1181 for SKF8
  C      OS     CT      1   116.900    694.544   ; -idem-
  C_2    OS     CT      1   116.900    694.544   ; -idem-
  OS     C      CT      1   111.400    677.808   ; -idem-
  OS     C_2    CT      1   111.400    677.808   ; -idem-
  OS     C      CT_2    1   111.400    677.808   ; -idem-
  OS     C      CA      1   111.400    677.808   ; wlj
  C      OS     CA      1   116.900    694.544   ; wlj
  C_2    OS     CA      1   116.900    694.544   ; wlj
  OS     CO     OH      1   111.550    774.876   ; Ha,CarbRes 180,207(88)Merz,JCC 15,1019 (94)
  OS     CO     OS      1   111.550    774.876   ; ACETAL- wlj 2/93
  C3     OS     CO      1   113.000    836.800   ; -idem-
  C3     CO     OS      1   109.500    669.440   ; -idem-
  C3     CO     C3      1   109.500    334.720   ; -idem-
  OS     CO     CT      1   109.500    418.400   ; hexopyranoses :  CT-CT-OS- wd 3/95 Glucose
  CO     CT     CT      1   112.700    488.273   ; -idem-            :  CT-CT-CT- wd 6/95 Glucose
  CT     CO     OH      1   109.500    418.400   ; -idem-            :  CT-CT-OH- wd 6/95 Glucose
  CT     CO     HC      1   110.700    313.800   ; -idem-            :  CT-CT-HC- wd 6/95 Glucose
  CO     OH     HO      1   108.500    460.240   ; -idem-            :  CT-OH-HO- wd 6/95 Glucose
  OS     CO     HC      1   109.500    292.880   ; -idem-            :  HC-CT-OS- wd 6/95 Glucose
  CO     OS     CT      1   109.500    502.080   ; -idem-            :  CT-OS-CT- wd 6/95 Glucose
  CO     CT     HC      1   110.700    313.800   ; -idem-            :  CT-CT-HC- wd 6/95 Glucose
  CO     CT     OH      1   109.500    418.400   ; -idem-            :  CT-CT-OH- wd 6/95 Glucose
  OH     CO     HC      1   109.500    292.880   ; -idem-            :  HC-CT-OS- wd 6/95 Glucose
  HC     CO     HC      1   109.500    276.144   ; -idem-            :  HC-CT-HC- wd 6/95
  CA     OS     NB      1   108.900    585.760   ;  
  CA     OS     CA      1   111.000    627.600   ; wlj 9/97 
  CA     OS     P       1   120.500    836.800   ; mll
  C3     OS     P       1   120.500    836.800   ; DMPhos based
  CT     OS     CT      1   109.500    502.080   ; 
  CT     OS     CA      1   111.000    627.600   ; wlj 9/97
  CT     OS     CM      1   111.000    627.600   ; wlj
  CT     OS     P       1   120.500    836.800   ; 
  O2     P      O2      1   119.900   1171.520   ; SUG(OL)
  O2     P      OH      1   108.230    376.560   ; SUG(OL)
  O2     P      OS      1   108.230    836.800   ; SUG(OL)
  OH     P      OS      1   102.600    376.560   ; SUG(OL)
  OS     P      OS      1   102.600    376.560   ; SUG(OL)
  O      P      OH      1   108.230    836.800   ; SUG(OL)
  O      P      OS      1   108.230    836.800   ; SUG(OL)
  OH     P      OH      1   102.600    376.560   ; SUG(OL)
  CT     P      OS      1   109.500    376.560   ; wlj 11/95
  CT     P      O2      1   109.500    376.560   ; wlj 11/95
  CT     P      O       1   109.500    376.560   ; wlj 11/95
  CA     P      OS      1   109.500    376.560   ; wlj 11/95
  CA     P      OH      1   109.500    376.560   ; wlj 11/95
  CA     P      O       1   109.500    376.560   ; wlj 11/95
  C3     S      LP      1    96.700   1255.200   ; 
  C3     S      S       1   103.700    569.024   ; CYX(OL)        SCHERAGA  JPC 79,1428
  CT     S      CT      1    98.900    518.816   ; MET(OL)
  CR     S      CW      1    90.000    619.232   ; wlj
  CW     S      CW      1    97.000    619.232   ; wlj
  CT     S      LP      1    96.700   1255.200   ; 
  CT     S      S       1   103.700    569.024   ; CYX(OL)        SCHERAGA  JPC 79,1428
  LP     S      LP      1   160.000      0.000   ; 
  LP     S      S       1    96.700   1255.200   ; 
  C3     SH     HS      1    96.000    368.192   ; CYS(OL)
  C3     SH     LP      1    96.700   1255.200   ; 
  CT     SH     HS      1    96.000    368.192   ; CYS(OL)
  CA     SH     HS      1    96.000    418.400   ; wlj
  CT     SH     LP      1    96.700   1255.200   ; 
  HS     SH     HS      1    92.070    292.880   ; 
  HS     SH     LP      1    96.700   1255.200   ; 
  LP     SH     LP      1   160.000      0.000   ; 
  P      OS     P       1   120.500    836.800   ; 
  CA     CT     CA      1   109.500    334.720   ; -idem-
  CA     CT     C       1   112.000    527.184   ; wlj
  CA     CT     C_2     1   112.000    527.184   ; wlj
  CA     CT     C_3     1   112.000    527.184   ; wlj
  CT     CA     NA      1   120.000    585.760   ; Added DSM (from CT-CC-NA)
  CT     CA     N2      1   120.100    585.760   ; 
  N2     CA     N       1   120.000    585.760   ; 
  CA     NA     CA      1   125.200    585.760   ; Added DSM (from C-NA-CA)
  CA     CA     NB      1   108.700    585.760   ; Added DSM (from CA-CA-NA)
  NA     CA     NB      1   123.300    585.760   ; Added DSM (from NA-CA-NC)
  CA     NB     CA      1   125.200    585.760   ; Added DSM (from C-NA-CA)
  HA     CA     NB      1   119.100    292.880   ; Added DSM (from HC-CM-NA)
  CA     CA     N       1   120.000    585.760   ; Added DSM (from CA-CA-NA)
  CA     N      H       1   119.800    292.880   ; Added DSM (from C-N-H)
  CB     CT     HC      1   109.500    292.880   ; Added DSM (from CA-CT-HC)
  CA     CB     CT      1   120.000    585.760   ; Added DSM (from CA-CA-CT)
  CB     CA     NA      1   108.700    585.760   ; Added DSM (from CA-CA-NA)
  CB     CB     CT      1   120.000    585.760   ; Added DSM (from CA-CA-CT)
  CB     CB     NB      1   110.400    585.760   ; GUA,ADE
  CB     CT     CT      1   114.000    527.184   ; Added DSM (from CA-CT-CT)
  CT     CT     F       1   109.500    418.400   ; PAK F-CT-HC (emd 5-09-94)
  CT_4   CT     F       1   109.500    418.400   ; Trifluoroethanol
  CA     CT     F       1   109.500    418.400   ; wlj 
  F      CT     F       1   109.100    644.336   ; PAK F-CT-F  (emd 5-09-94)
  HC     CT     F       1   107.000    334.720   ; wlj
  CT     C      C       1   117.200    669.440   ; (JP 1-6-91)  SKF8
  CT     C      C_2     1   117.200    669.440   ; (JP 1-6-91)  SKF8
  CT     C      C_3     1   117.200    669.440   ; (JP 1-6-91)  SKF8
  CT     C_2    C       1   117.200    669.440   ; (JP 1-6-91)  SKF8
  CT     C_2    C_2     1   117.200    669.440   ; (JP 1-6-91)  SKF8
  CT     C_2    C_3     1   117.200    669.440   ; (JP 1-6-91)  SKF8
  C      C      O       1   121.400    669.440   ; ketone (JP 1-5-91) SKF8
  C      C      O_2     1   121.400    669.440   ; ketone (JP 1-5-91) SKF8
  C      C      O_3     1   121.400    669.440   ; ketone (JP 1-5-91) SKF8
  C      C_2    O_2     1   121.400    669.440   ; ketone (JP 1-5-91) SKF8
  C_2    C      O       1   121.400    669.440   ; ketone (JP 1-5-91) SKF8
  C_2    C      O_2     1   121.400    669.440   ; ketone (JP 1-5-91) SKF8
  C_2    C      O_3     1   121.400    669.440   ; ketone (JP 1-5-91) SKF8
  C_2    C_2    O_2     1   121.400    669.440   ; ketone (JP 1-5-91) SKF8
  C_3    C      O       1   121.400    669.440   ; ketone (JP 1-5-91) SKF8
  C_3    C      O_2     1   121.400    669.440   ; ketone (JP 1-5-91) SKF8
  C_3    C      O_3     1   121.400    669.440   ; ketone (JP 1-5-91) SKF8
  C_3    C_2    O_2     1   121.400    669.440   ; ketone (JP 1-5-91) SKF8
  C      C      N       1   116.600    585.760   ; (JP 1-5-91) SKF8
  C_2    C      N       1   116.600    585.760   ; (JP 1-5-91) SKF8
  C_3    C      N       1   116.600    585.760   ; (JP 1-5-91) SKF8
  C      C_2    N       1   116.600    585.760   ; (JP 1-5-91) SKF8
  C_2    C_2    N       1   116.600    585.760   ; (JP 1-5-91) SKF8
  C_3    C_2    N       1   116.600    585.760   ; (JP 1-5-91) SKF8
  OY     SY     N       1   107.000   1004.160   ; 
  OY     SY     OY      1   119.000    870.272   ; 
  OY     SZ     CT      1   107.000    619.232   ; 
  OY     SY     CT      1   108.900    619.232   ; 
  OY     SY     CA      1   107.200    619.232   ; 
  N      SY     CA      1   103.000    836.800   ; 
  SY     CA     CA      1   119.400    711.280   ; 
  SY     CT     HC      1   109.500    292.880   ; 
  SZ     CT     HC      1   109.500    292.880   ; 
  CT     SY     CT      1   102.000    518.816   ;   
  CA     SY     CT      1   102.000    518.816   ; 
  CR     SY     CT      1   102.000    518.816   ; 
  CU     CT     SY      1   119.400    711.280   ; 
  CT     SZ     CT      1    96.000    518.816   ; 
  CT     CT     SY      1   108.600    418.400   ; 
  CT     CT     SZ      1   108.600    418.400   ; 
  N      SY     CT      1   103.000    836.800   ; 
  SY     N      CT      1   120.000    418.400   ; 
  H      N      SY      1   111.000    836.800   ; 
  OS     C      N       1   111.400    677.808   ; bhap,                   copy from OS-C-CT      rcr HIVRT
  OS     C_2    N       1   111.400    677.808   ; bhap,                   copy from OS-C-CT      rcr HIVRT
  CT     NT     SY      1   108.600    418.400   ; bhap,                   copy from CT-CT-SY      rcr HIVRT
  C      CT     F       1   109.500    418.400   ; bhap,                   copy from CT-CT-F       rcr HIVRT
  C_2    CT     F       1   109.500    418.400   ; bhap,                   copy from CT-CT-F       rcr HIVRT
  C_3    CT     F       1   109.500    418.400   ; bhap,                   copy from CT-CT-F       rcr HIVRT
  SY     CT     F       1   109.500    418.400   ; bhap,                   copy from CT-CT-F       rcr HIVRT
  SY     NT     H       1   115.000    292.880   ; bhap,                   adjusted from CT-NT-H   rcr HIVRT
  C      CW     NA      1   120.000    711.280   ; bhap,                   copy from C-CA-CA      rcr HIVRT
  C_2    CW     NA      1   120.000    711.280   ; bhap,                   copy from C-CA-CA      rcr HIVRT
  C_3    CW     NA      1   120.000    711.280   ; bhap,                   copy from C-CA-CA      rcr HIVRT
  NT     C      CW      1   116.000    585.760   ; bhap,                   copy from CT-C-CT      rcr HIVRT
  C      CW     CS      1   120.000    711.280   ; bhap,                   copy from C-CA-CA      rcr HIVRT
  C_2    CW     CS      1   120.000    711.280   ; bhap,                   copy from C-CA-CA      rcr HIVRT
  C_3    CW     CS      1   120.000    711.280   ; bhap,                   copy from C-CA-CA      rcr HIVRT
  CB     CS     HA      1   120.000    292.880   ; bhap,                   copy from CB-CA-HA      rcr HIVRT
  CW     C      O       1   120.400    669.440   ; bhap,                   copy from CA-C-O       rcr HIVRT
  CW     C      O_2     1   120.400    669.440   ; bhap,                   copy from CA-C-O       rcr HIVRT
  CW     C      O_3     1   120.400    669.440   ; bhap,                   copy from CA-C-O       rcr HIVRT
  CW     C_2    O_2     1   120.400    669.440   ; bhap,                   copy from CA-C-O       rcr HIVRT
  C      NT     CT      1   111.100    527.184   ; bhap,                   copy from C-CT-CT      rcr HIVRT
  C_2    NT     CT      1   111.100    527.184   ; bhap,                   copy from C-CT-CT      rcr HIVRT
  C_3    NT     CT      1   111.100    527.184   ; bhap,                   copy from C-CT-CT      rcr HIVRT
  C      CT     C       1   111.100    527.184   ; lac,                    copy from C-CT-CT      rcr HIVRT
  C_2    CT     C       1   111.100    527.184   ; lac,                    copy from C-CT-CT      rcr HIVRT
  C_3    CT     C       1   111.100    527.184   ; lac,                    copy from C-CT-CT      rcr HIVRT
  C      CT     OS      1   109.500    418.400   ; lac,                    copy from CT-CT-OS      rcr HIVRT
  C_2    CT     OS      1   109.500    418.400   ; lac,                    copy from CT-CT-OS      rcr HIVRT
  C_3    CT     OS      1   109.500    418.400   ; lac,                    copy from CT-CT-OS      rcr HIVRT
  N      CT     OS      1   109.500    418.400   ; lac,                    copy from CT-CT-OS      rcr HIVRT
  NT     C      O       1   120.400    669.440   ; nev,                    copy from CT-C-O       rcr HIVRT
  NT     C      O_2     1   120.400    669.440   ; nev,                    copy from CT-C-O       rcr HIVRT
  NT     C      O_3     1   120.400    669.440   ; nev,                    copy from CT-C-O       rcr HIVRT
  NT     C_2    O_2     1   120.400    669.440   ; nev,                    copy from CT-C-O       rcr HIVRT
  NT     C      CT      1   116.000    585.760   ; nev,                    copy from CT-C-CT      rcr HIVRT
  NT     C_2    CT      1   116.000    585.760   ; nev,                    copy from CT-C-CT      rcr HIVRT
  CA     NT     C       1   112.000    527.184   ; nev,                    copy from CA-CT-C       rcr HIVRT
  CA     NT     C_2     1   112.000    527.184   ; nev,                    copy from CA-CT-C       rcr HIVRT
  CA     NT     C_3     1   112.000    527.184   ; nev,                    copy from CA-CT-C       rcr HIVRT
  CA     NT     SY      1   108.600    418.400   ; nev,                    copy from CT-CT-SY      rcr HIVRT
  OY     SY     NT      1   108.900    619.232   ; nev,                    copy from OY-SY-CT      rcr HIVRT
  NT     SY     CT      1   102.000    518.816   ; nev,                    copy from CT-SY-CT      rcr HIVRT
  NT     CT     S       1   114.700    418.400   ; nev,                    copy from CT-CT-S       rcr HIVRT
  HC     CY     NT      1   114.300    292.880   ; nev,                    copy from HC-CY-CT      rcr HIVRT
  CY     CY     NT      1   117.200    313.800   ; nev,                    copy from CY-CY-CT      rcr HIVRT
  CA     NT     CY      1   109.500    418.400   ; nev,                    copy from CA-NT-CT      rcr HIVRT
  NC     CA     Cl      1   120.000    627.600   ; nev,                    copy from CA-CA-Cl      rcr HIVRT
  CA     NT     CA      1   109.500    334.720   ; nev,                    copy from CA-CT-CA      rcr HIVRT
  NC     CA     NT      1   116.000    585.760   ; nev,                    copy from NC-CA-CT      rcr HIVRT
  CM     CM     CY      1   124.000    585.760   ; hept,                   copy from CM-CM-CT      rcr HIVRT
  CM     CY     HC      1   109.500    292.880   ; hept,                   copy from CM-CT-HC      rcr HIVRT
  CM     CY     CY      1   114.000    527.184   ; hept,                   copy from CA-CT-CT      rcr HIVRT
  C      CM     CY      1   119.700    585.760   ; hept,                   copy from C-CM-CT      rcr HIVRT
  C_2    CM     CY      1   119.700    585.760   ; hept,                   copy from C-CM-CT      rcr HIVRT
  C_3    CM     CY      1   119.700    585.760   ; hept,                   copy from C-CM-CT      rcr HIVRT
  N*     CM     CT      1   120.000    585.760   ; hept,                   copy from PHE(OL)       rcr HIVRT
  NA     CM     CT      1   120.000    585.760   ; hept,                   copy from PHE(OL)       rcr HIVRT
  S      CM     CM      1   119.400    711.280   ; hept,                   copy from SY-CA-CA      rcr HIVRT
  S      CM     N*      1   119.400    711.280   ; hept,                   copy from SY-CA-CA      rcr HIVRT
  S      CM     NA      1   119.400    711.280   ; hept,                   copy from SY-CA-CA      rcr HIVRT
  N*     CM     OS      1   120.000    585.760   ; hept,                   copy from CA-CA-OS      rcr HIVRT
  NA     CM     OS      1   120.000    585.760   ; hept,                   copy from CA-CA-OS      rcr HIVRT
  CA     S      CM      1   104.200    518.816   ; hept,                   adjusted from CT-S-CT  rcr HIVRT
  CM     OS     CA      1   111.000    627.600   ; hept,                   copy from CT-S-CT      rcr HIVRT
  CM     CT     CA      1   109.500    334.720   ; hept,                   copy from CA-CT-CA      rcr HIVRT
  S      CA     CA      1   119.400    711.280   ; thioanisole             copy from SY-CA-CA      rcr HIVRT
  P      CA     CA      1   119.400    711.280   ; 
  CA     S      CT      1   104.200    518.816   ; thioanisole             adjusted from CT-S-CT  rcr HIVRT
 
; Charged Glutamine
; See. Patriksson et al. Int. J. Mass. Spectrom. 248 pp 124-135 (2006)
  OH     C      N       1   115.43     292.88
 
  
[ dihedraltypes ]
;  i    j    k    l   func     coefficients
; OPLS Fourier dihedraltypes translated to Gromacs Ryckaert-Bellemans form
; according to the formula in the Gromacs manual.
  Br     C      CB     CT      3      0.00000   0.00000   0.00000   0.00000   0.00000   0.00000 ; acyl halide
  Br     C      CT     HC      3      0.75312   2.25936   0.00000  -3.01248   0.00000   0.00000 ; acyl halide
  Br     CT     CT     Br      3     -0.52300   0.52300   0.00000   0.00000   0.00000   0.00000 ; dichloride
  Br     CT     CT     CT      3      0.83680   2.51040   0.00000  -3.34720   0.00000   0.00000 ; alkyl bromide 
  Br     CT     CT     HC      3      0.83680   2.51040   0.00000  -3.34720   0.00000   0.00000 ; alkyl bromide
  C      C      N      H       3     20.50160   0.00000 -20.50160   0.00000   0.00000   0.00000 ; dicarbonyls BMC 8,1881(2000)
  C      C      N      CT      3     21.33840  -0.83680 -20.50160   0.00000   0.00000   0.00000 ; dicarbonyls BMC 8,1881(2000)
  C      C      CT     HC      3      0.17782   0.53346   0.00000  -0.71128   0.00000   0.00000 ; dicarbonyls BMC 8,1881(2000)
  C      C      OH     HO      3     29.28800  -6.27600 -23.01200   0.00000   0.00000   0.00000 ; oxalic acid, etc.
  C      N      C      N       3     30.28798  -4.81160 -25.47638   0.00000   0.00000   0.00000 ; imides 
  C      N      CT     CA      3     -4.70700   2.92044   1.78656   0.00000   0.00000   0.00000 ; from N-ethylformamide
  C      N      CT     CT      3     -4.70700   2.92044   1.78656   0.00000   0.00000   0.00000 ; N-ethylformamide
  C      N      CT     HC      3     -0.29079  -0.87237   0.00000   1.16315   0.00000   0.00000 ; N-methylformamide
  C      N      CY     CY      3     -4.70700   2.92044   1.78656   0.00000   0.00000   0.00000 ; small ring      
  C      N      CY     HC      3      0.00000   0.00000   0.00000   0.00000   0.00000   0.00000 ; small ring
  C      N      OH     HO      3    -15.27160  -7.89939  28.03280  -4.86181   0.00000   0.00000 ; hydroxamic acids
  C      N      CT_3   CT      3     15.70255  31.75656  -3.66936 -43.78975   0.00000   0.00000 ; Phi prime peptides  AA
  C      N      CT_3   HC      3      0.00000   0.00000   0.00000   0.00000   0.00000   0.00000 ; 
  C      N      CT_2   CT      3     15.70255  31.75656  -3.66936 -43.78975   0.00000   0.00000 ; Phi prime peptides AA
  C      N      CT_2   HC      3      0.00000   0.00000   0.00000   0.00000   0.00000   0.00000 ; Phi bis peptides AA
  C      CT     N      C       3    -10.35749 -29.58716  -1.16734  41.11199   0.00000   0.00000 ; Phi peptides AA C(O)-N-Ca-C(O)
  C_3    CT     N      C       3    -10.35749 -29.58716  -1.16734  41.11199   0.00000   0.00000 ; Phi peptides AA C(O)-N-Ca-C(O)
  C      CT     N      CT      3     -5.72371 -18.33847  -5.23419  29.29636   0.00000   0.00000 ; from Pro (fit to AM1) CD-N-CA-C
  C      CT     CT     C*      3     -4.23421   7.22159   1.90790  -4.89528   0.00000   0.00000 ; 
  C      CT     CT     CA      3     -4.23421   7.22159   1.90790  -4.89528   0.00000   0.00000 ; aldehyde & ketone & acyl halide
  C      CT     CT     CT      3     -4.96013   6.28646   1.30959  -2.63592   0.00000   0.00000 ; butanamide
  C      CT     CT     HC      3     -0.20920  -0.62760   0.00000   0.83680   0.00000   0.00000 ; 
  C      CT     CT_2   HC      3     -0.15899  -0.47698   0.00000   0.63596   0.00000   0.00000 ;
  C_3    CT     CT_2   HC      3     -0.15899  -0.47698   0.00000   0.63596   0.00000   0.00000 ;
  C      CT     CT_2   C       3     -4.23421   7.22159   1.90790  -4.89528   0.00000   0.00000 ;
  C      CT     NT     H       3     -1.26775   3.02085   1.74473  -3.49782   0.00000   0.00000 ; amine all-atom
  C      CT_2   NT     H       3     -1.26775   3.02085   1.74473  -3.49782   0.00000   0.00000 ; aa H2N-terminus
  C      CT     OH     HO      3     -0.44350   3.83255   0.72801  -4.11705   0.00000   0.00000 ; 
  C      CT     N3     H3      3      0.72592   2.17777   0.00000  -2.90370   0.00000   0.00000 ; ammonium ion all-atom
  C      NC     OH     HO      3     18.82800  -6.27600 -12.55200   0.00000   0.00000   0.00000 ; oxime B3LYP/6-31G*
  C      NC     OS     CT      3     18.82800  -6.27600 -12.55200   0.00000   0.00000   0.00000 ; oxime 11/00
  C      OS     CA     CA      3     10.46000   0.00000 -10.46000   0.00000   0.00000   0.00000 ; phenyl acetate
  C      OS     CT     CT      3     -2.19660   5.20071   0.52719  -3.53130   0.00000   0.00000 ; esters
  C      OS     CT     HC      3      0.41421   1.24265   0.00000  -1.65686   0.00000   0.00000 ; esters
  C      CT_2   N      C       3    -10.35749 -29.58716  -1.16734  41.11199   0.00000   0.00000 ; Phi peptides AA C(O)-N-Ca-C(O)
  C_3    CT_2   N      C       3    -10.35749 -29.58716  -1.16734  41.11199   0.00000   0.00000 ; C-term phi.
  C      CT_2   N      H       3      0.00000   0.00000   0.00000   0.00000   0.00000   0.00000 ; peptides  H-N-CA-X
  C      CT_2   N      CT_3    3     -5.72371 -18.33847  -5.23419  29.29636   0.00000   0.00000 ; Pro (fit to AM1) CD-N-CA-C, JT-R 2/10/97
  C      CT_2   NT     CT_3    3     -5.72371 -18.33847  -5.23419  29.29636   0.00000   0.00000 ; Pro (fit to AM1) CD-N-CA-C, JT-R 2/10/97
  C_3    CT_2   N      CT_3    3     -5.72371 -18.33847  -5.23419  29.29636   0.00000   0.00000 ; Pro COO- terminus.
  C_3    CT_2   NT     CT_3    3     -5.72371 -18.33847  -5.23419  29.29636   0.00000   0.00000 ; Pro COO- terminus.
  C      CT     CT     CT_2    3     -4.23421   7.22159   1.90790  -4.89528   0.00000   0.00000 ; GLUH
  C      CT_2   CT     S       3    -16.25902   9.08765   7.17138   0.00000   0.00000   0.00000 ; Chi for Cyx (Cystine)
  C      CT_2   CT     C*      3     -4.23421   7.22159   1.90790  -4.89528   0.00000   0.00000 ; aldehyde & ketone
  C      CT_2   CT     C_3     3     -4.23421   7.22159   1.90790  -4.89528   0.00000   0.00000 ; aldehyde & ketone
  C      CT_2   CT     CA      3     -4.23421   7.22159   1.90790  -4.89528   0.00000   0.00000 ; peptide, aldehyde & ketone
  C      CT_2   CT     CT      3     -4.23421   7.22159   1.90790  -4.89528   0.00000   0.00000 ; peptide, aldehyde & ketone
  C      CT_2   CT     CV      3     -4.23421   7.22159   1.90790  -4.89528   0.00000   0.00000 ; peptide, aldehyde & ketone
  C      CT_2   CT     CW      3     -4.23421   7.22159   1.90790  -4.89528   0.00000   0.00000 ; peptide, aldehyde & ketone
  C      CT_2   CT     CX      3     -4.23421   7.22159   1.90790  -4.89528   0.00000   0.00000 ; peptide, aldehyde & ketone
  C      CT_2   CT     HC      3     -0.15899  -0.47698   0.00000   0.63596   0.00000   0.00000 ; peptide, aldehyde & ketone
  C      CT_2   CT     OH      3    -15.47661  11.82816   3.64845   0.00000   0.00000   0.00000 ; Chi for Ser & Thr
  C_3    CT_2   CT     OH      3    -15.47661  11.82816   3.64845   0.00000   0.00000   0.00000 ; C-terminal Chi for Ser & Thr
  C      CT_2   CT     SH      3    -16.25902   9.08765   7.17138   0.00000   0.00000   0.00000 ; Chi for Cys (Cysteine)
  C      CT_2   N3     H3      3      0.72592   2.17777   0.00000  -2.90370   0.00000   0.00000 ; peptides  H-N-CA-C
  C_3    CT_2   N3     H3      3      0.72592   2.17777   0.00000  -2.90370   0.00000   0.00000 ; Zwitterion AAs
  C      CT_2   N3     CT_3    3     -5.72371 -18.33847  -5.23419  29.29636   0.00000   0.00000 ; 
  C      CT_2   NT     CT_3    3     -5.72371 -18.33847  -5.23419  29.29636   0.00000   0.00000 ; 
  C*     CT     CT     HC      3      0.96650   2.89951   0.00000  -3.86601   0.00000   0.00000 ; aromatics
  C*     CT     CT_2   N       3     -0.76567   2.70705   4.02501  -5.96639   0.00000   0.00000 ; Chi-1 peptides AA
  C*     CT     CT_2   HC      3      0.96650   2.89951   0.00000  -3.86601   0.00000   0.00000 ; 
  C*     CT     CT_2   N3      3     -0.76567   2.70705   4.02501  -5.96639   0.00000   0.00000 ; Chi-1 peptides AA
  C*     CW     NA     H       3     12.55200   0.00000 -12.55200   0.00000   0.00000   0.00000 ; TRP chi-4
  C*     CW     NA     CN      3     12.55200   0.00000 -12.55200   0.00000   0.00000   0.00000 ; TRP chi-4
  C3     CT     OH     HO      3      0.41840   1.25520   0.00000  -1.67360   0.00000   0.00000 ; Alcohols   with scl14 = 2,2
  C=     CM     CA     CA      3     16.02681  -4.39111 -14.02895   2.39325   0.00000   0.00000 ; styrene
  C=     CM     CT     CT      3      0.52719  -6.39734  -1.69452   7.56467   0.00000   0.00000 ; alkenes
  C=     CM     OS     CT      3      5.23000   7.32200 -12.55200   0.00000   0.00000   0.00000 ; vinyl ether
  C=     CT     OH     HO      3     -1.88280   1.88280   0.00000   0.00000   0.00000   0.00000 ; allyl alcohols
  CA     C      OH     HO      3     29.28800  -8.36800 -20.92000   0.00000   0.00000   0.00000 ; benzoic acids & esters 
  CA     C      OS     CT      3     29.28800  -8.36800 -20.92000   0.00000   0.00000   0.00000 ; benzoic acids & esters 
  CA     N      C      O       3     25.47638   0.00000 -25.47638   0.00000   0.00000   0.00000 ; amides  O-C(O)-N-C
  CA     N      C      CT      3     30.28798  -4.81160 -25.47638   0.00000   0.00000   0.00000 ; amides - V1 changed to 2.3
  CA     N      CT     HC      3      0.00000   0.00000   0.00000   0.00000   0.00000   0.00000 ; tertiary amide
  CA     S      CT     HC      3      1.35352   4.06057   0.00000  -5.41410   0.00000   0.00000 ; sulfide all-atom
  CA     CA     C      N       3      4.60240   0.00000  -4.60240   0.00000   0.00000   0.00000 ; aryl amides, benzamides
  CA     CA     C      O       3      8.78640   0.00000  -8.78640   0.00000   0.00000   0.00000 ; aryl acid, amide, ester
  CA     CA     C      CT      3      0.83680   0.00000  -0.83680   0.00000   0.00000   0.00000 ; aryl ketone
  CA     CA     C      HC      3      0.83680   0.00000  -0.83680   0.00000   0.00000   0.00000 ; aryl aldehyde
  CA     CA     C      OH      3      8.78640   0.00000  -8.78640   0.00000   0.00000   0.00000 ; aryl acid, ester
  CA     CA     C      OS      3      8.78640   0.00000  -8.78640   0.00000   0.00000   0.00000 ; aryl acid, amide, ester
  CA     CA     C      O_2     3      8.78640   0.00000  -8.78640   0.00000   0.00000   0.00000 ; aryl acid, amide, ester
  CA     CA     C      O_3     3      8.78640   0.00000  -8.78640   0.00000   0.00000   0.00000 ; aryl acid, amide, ester
  CA     CA     S      CT      3      2.51040   0.00000  -2.51040   0.00000   0.00000   0.00000 ; thioanisole  fit to MP4
  CA     CA     CA     N2      3      0.00000   0.00000  16.73600   0.00000 -16.73600   0.00000 ; benzamidine
  CA     CA     CM     CM      3     16.02681  -4.39111 -14.02895   2.39325   0.00000   0.00000 ; styrene
  CA     CA     CM     CT      3     -1.79284  -0.42886   2.22170   0.00000   0.00000   0.00000 ; 1-methylstyrene
  CA     CA     CT     F       3      0.00000   0.00000   0.00000   0.00000   0.00000   0.00000 ; fluoromethyl benzene
  CA     CA     CT     CT      3      0.00000   0.00000   0.00000   0.00000   0.00000   0.00000 ; ethyl benzene
  CA     CA     CT     Cl      3      0.00000   0.00000   0.00000   0.00000   0.00000   0.00000 ; chloromethyl benzene
  CA     CA     CT     HC      3      0.00000   0.00000   0.00000   0.00000   0.00000   0.00000 ; ethyl benzene
  CA     CA     N2     H       3      8.49352   0.00000  -8.49352   0.00000   0.00000   0.00000 ; aniline
  CA     CA     N2     H3      3      5.85760   0.00000  -5.85760   0.00000   0.00000   0.00000 ; from aniline
  CA     CA     NO     ON      3      4.81160   0.00000  -4.81160   0.00000   0.00000   0.00000 ; CA-CA-NO-ON  nitrobenzene
  CA     CA     NT     H       3      8.49352   0.00000  -8.49352   0.00000   0.00000   0.00000 ; aniline
  CA     CA     NT     CT      3      5.18398  35.93219 -14.35530 -26.76086   0.00000   0.00000 ; substituted-aniline
  CA     CA     OH     HO      3      7.03749   0.00000  -7.03749   0.00000   0.00000   0.00000 ; phenol all-atom
  CA     CA     OS     P       3     12.51016   0.00000 -12.51016   0.00000   0.00000   0.00000 ; PhOPO3 (2-) mll
  CT     CT     OS     P       3     12.51016   0.00000 -12.51016   0.00000   0.00000   0.00000 ; Guess for phosphate in lipids
  N3     CT     CT     OS      3      2.92880  -1.46440   0.20920  -1.67360   0.00000   0.00000 ; Guess for lipids
  CA     CA     OS     CT      3     12.55200   0.00000 -12.55200   0.00000   0.00000   0.00000 ; anisole 
  CA     CA     OS     C_2     3     10.46000   0.00000 -10.46000   0.00000   0.00000   0.00000 ; phenyl acetate
  CA     CA     SH     HS      3      4.60240   0.00000  -4.60240   0.00000   0.00000   0.00000 ; aromatic thiol
  CA     CA     SY     N       3      0.00628  -4.19864   3.21331   0.97905   0.00000   0.00000 ; sulfonamide
  CA     CA     SY2    CT      3     -3.76560   0.00000   3.76560   0.00000   0.00000   0.00000 ; sulfone 10/00 B3LYP PhSO2Me
  CA     CA     C_2    CT      3      0.83680   0.00000  -0.83680   0.00000   0.00000   0.00000 ; aryl ketone
  CA     CA     C_2    HC      3      0.83680   0.00000  -0.83680   0.00000   0.00000   0.00000 ; aryl aldehyde 
  CA     CT     C      O       3      2.28446   0.00000  -2.28446   0.00000   0.00000   0.00000 ; RCOOH acid
  CA     CT     C      O_3     3      2.28446   0.00000  -2.28446   0.00000   0.00000   0.00000 ; RCOOH acid
  CT     CT     N      CT      3     -8.97677 -76.68644  -8.61067  94.27389   0.00000   0.00000 ; from Pro CG-CD-N-CA 
  CA     CT     N      CT      3     -8.97677 -76.68644  -8.61067  94.27389   0.00000   0.00000 ; from Pro CG-CD-N-CA 
  CA     CT     P      O2      3      0.00000   0.00000   0.00000   0.00000   0.00000   0.00000 ; phosphonates
  CA     CT     P      OS      3      4.70700  -4.70700   0.00000   0.00000   0.00000   0.00000 ; phosphonates
  CA     CT     CT     S       3      3.42461  -3.85974   2.59408  -2.15895   0.00000   0.00000 ; sulfide all-atom
  CA     CT     CT     CT      3      2.92880  -1.46440   0.20920  -1.67360   0.00000   0.00000 ; 
  CA     CT     CT     HC      3      0.96650   2.89951   0.00000  -3.86601   0.00000   0.00000 ; ethyl benzene
  CA     CT     CT_2   HC      3      0.96650   2.89951   0.00000  -3.86601   0.00000   0.00000 ; ethyl benzene
  CA     CT     CT     N3      3      2.09200  -2.09200   0.00000   0.00000   0.00000   0.00000 ; phenethylammonium - JACS 119,12292(97)
  CA     CT     CT     NC      3      5.77183  -2.67148   0.95814  -4.05848   0.00000   0.00000 ; 
  CA     CT     CT     NT      3      3.33465  -1.55226   2.82001  -4.60240   0.00000   0.00000 ; amine all-atom 
  CA     CT     CT_2   NT      3      3.33465  -1.55226   2.82001  -4.60240   0.00000   0.00000 ; AA H2N-terminus.
  CA     CT     CT     OH      3      2.87441   0.58158   2.09200  -5.54799   0.00000   0.00000 ; from alcohol
  CA     CT     CT     OS      3      2.87441   0.58158   2.09200  -5.54799   0.00000   0.00000 ; alcohols, ethers AA
  CA     CT     CT     C_2     3     -4.23421   7.22159   1.90790  -4.89528   0.00000   0.00000 ; aldehyde & ketone
  CA     CT     N2     CA      3      3.80117  -6.95172  -1.01671   4.16726   0.00000   0.00000 ; ethylguanidinium ion
  CA     CT     NT     CT      3      1.78866   3.49154   0.53555  -5.81576   0.00000   0.00000 ; amine all-atom
  CA     CT     OH     HO      3     -1.88280   1.88280   0.00000   0.00000   0.00000   0.00000 ; benzyl alcohols 
  CA     CT     OS     CO      3      1.71544   2.84512   1.04600  -5.60656   0.00000   0.00000 ; 
  CA     CT     OS     CT      3      1.71544   2.84512   1.04600  -5.60656   0.00000   0.00000 ; ethers AA
  CA     CT     CT_2   N       3     -0.76567   2.70705   4.02501  -5.96639   0.00000   0.00000 ; Chi-1 peptides AA
  CA     CT     CT_2   N3      3     -0.76567   2.70705   4.02501  -5.96639   0.00000   0.00000 ; Chi-1 peptides AA
  CA     N2     CA     N2      3     33.20422   0.00000 -33.20422   0.00000   0.00000   0.00000 ; methylguanidinium ion
  CA     N2     CA     NC      3     33.20422   0.00000 -33.20422   0.00000   0.00000   0.00000 ; 
  CA     N2     CT     CT      3      3.80117  -6.95172  -1.01671   4.16726   0.00000   0.00000 ; ethylguanidinium ion
  CA     NY     CT     CT      3      3.80117  -6.95172  -1.01671   4.16726   0.00000   0.00000 ; ARGN.
  CA     N2     CT     HC      3      0.37028   1.11086   0.00000  -1.48114   0.00000   0.00000 ; methylguanidinium ion
  CA     NY     CT     HC      3      0.37028   1.11086   0.00000  -1.48114   0.00000   0.00000 ; ARGN
  CA     NC     CT     CT      3      3.80117  -6.95172  -1.01671   4.16726   0.00000   0.00000 ; 
  CA     NT     CT     HC      3      1.17152   3.51456   0.00000  -4.68608   0.00000   0.00000 ; amine all-atom
  CA     OS     C      O       3     20.92000   0.00000 -20.92000   0.00000   0.00000   0.00000 ; phenyl acetate
  CA     OS     C      CT      3     24.05800  -3.13800 -20.92000   0.00000   0.00000   0.00000 ; phenyl acetate
  CA     OS     P      O       3      0.00000   0.00000   0.00000   0.00000   0.00000   0.00000 ; phosphonates
  CA     OS     CT     CT      3      1.71544   2.84512   1.04600  -5.60656   0.00000   0.00000 ; ethers AA
  CA     OS     CT     CA      3      1.71544   2.84512   1.04600  -5.60656   0.00000   0.00000 ; ethers AA
  CA     OS     CT     HC      3      1.58992   4.76976   0.00000  -6.35968   0.00000   0.00000 ; ethers AA
  CA     SY     N      H       3    -15.61050   0.70291  20.50579  -5.59819   0.00000   0.00000 ; sulfonamide
  CA     SY     N      CT      3     -2.89742  11.18174  12.40975 -20.69406   0.00000   0.00000 ; sulfonamide
  CA     SY2    CT     HC      3      0.73220   2.19660   0.00000  -2.92880   0.00000   0.00000 ; sulfone
  CB     C*     CT     CT      3      0.00000   0.00000   0.00000   0.00000   0.00000   0.00000 ; 3-ethylindole
  CB     C*     CT     HC      3      0.00000   0.00000   0.00000   0.00000   0.00000   0.00000 ; 3-methylindole
  CB     C*     CT     CT_2    3      0.00000   0.00000   0.00000   0.00000   0.00000   0.00000 ; 
  CB     CA     CT     CT      3      0.00000   0.00000   0.00000   0.00000   0.00000   0.00000 ; ethyl benzene
  CB     CA     CT     HC      3      0.00000   0.00000   0.00000   0.00000   0.00000   0.00000 ; ethyl benzene
  CB     CA     N2     H       3      8.49352   0.00000  -8.49352   0.00000   0.00000   0.00000 ; aniline-like
  CB     CS     CT     CT      3      0.00000   0.00000   0.00000   0.00000   0.00000   0.00000 ; 3-ethylindole 
  CB     CS     CT     HC      3      0.00000   0.00000   0.00000   0.00000   0.00000   0.00000 ; 3-methylindole
  CK     CT     CT     HC      3      0.96650   2.89951   0.00000  -3.86601   0.00000   0.00000 ; aromatics
  CK     N*     CT     CT      3     -3.55640   2.09200   1.46440   0.00000   0.00000   0.00000 ; imidazoles, indoles, purines
  CK     N*     CT     OS      3     -9.41400   3.13800   6.27600   0.00000   0.00000   0.00000 ; imidazoles, indoles, purines
  CK     NA     CT     CT      3     -3.55640   2.09200   1.46440   0.00000   0.00000   0.00000 ; imidazoles, indoles, purines
  CK     NA     CT     OS      3     -9.41400   3.13800   6.27600   0.00000   0.00000   0.00000 ; imidazoles, indoles, purines
  CM     C      N      H       3     20.50160   0.00000 -20.50160   0.00000   0.00000   0.00000 ; amides
  CM     N      C      O       3     25.47638   0.00000 -25.47638   0.00000   0.00000   0.00000 ; amides
  CM     C=     C      O       3     30.33400  -5.23000 -25.10400   0.00000   0.00000   0.00000 ; acrolein
  CM     C=     C      CT      3    -10.87840  -1.67360  12.55200   0.00000   0.00000   0.00000 ; methyl vinyl ketone
  CM     C=     C      OH      3     -5.85760  -6.69440  12.55200   0.00000   0.00000   0.00000 ; acrylic acid
  CM     C=     C=     CM      3     21.73797   2.40789 -16.96612  -7.17975   0.00000   0.00000 ; diene C=C-C=C
  CM     C=     C=     CT      3     -0.77822  -2.33467   0.00000   3.11290   0.00000   0.00000 ; diene - generic
  CM     C=     C=     HC      3     -0.77822  -2.33467   0.00000   3.11290   0.00000   0.00000 ; alkenes all-atom
  CM     C=     C_2    HC      3      0.00000   0.00000   0.00000   0.00000   0.00000   0.00000 ; acrolein
  CM     C=     C_2    O_2     3     30.33400  -5.23000 -25.10400   0.00000   0.00000   0.00000 ; acrolein
  CM     CM     C      N       3      4.18400  -4.18400   0.00000   0.00000   0.00000   0.00000 ; vinyl amides
  CM     CM     C      O       3     30.33400  -5.23000 -25.10400   0.00000   0.00000   0.00000 ; acrolein-like
  CM     CM     C      OH      3     -5.85760  -6.69440  12.55200   0.00000   0.00000   0.00000 ; acrylic acid-like
  CM     CM     CT     CT      3      0.52719  -6.39734  -1.69452   7.56467   0.00000   0.00000 ; alkenes
  CM     CM     CT     HC      3     -0.77822  -2.33467   0.00000   3.11290   0.00000   0.00000 ; alkenes all-atom
  CM     CM     OS     CT      3      5.23000   7.32200 -12.55200   0.00000   0.00000   0.00000 ; vinyl ether
  CM     CT     CT     CT      3      2.92880  -1.46440   0.20920  -1.67360   0.00000   0.00000 ; 
  CM     CT     CT     HC      3      0.76567   2.29701   0.00000  -3.06269   0.00000   0.00000 ; alkene
  CM     CT     OH     HO      3     -1.88280   1.88280   0.00000   0.00000   0.00000   0.00000 ; allyl alcohols 
  CM     OS     CT     HC      3      1.58992   4.76976   0.00000  -6.35968   0.00000   0.00000 ; ethers AA
  CN     NA     CW     HA      3     12.55200   0.00000 -12.55200   0.00000   0.00000   0.00000 ; chi-4  in TRP
  CO     CT     CT     CT      3      2.92880  -1.46440   0.20920  -1.67360   0.00000   0.00000 ; hydrocarbon *new* 11/99
  CO     CT     CT     HC      3      0.62760   1.88280   0.00000  -2.51040   0.00000   0.00000 ; acetal   
  CO     CT     CT     NT      3      3.33465  -1.55226   2.82001  -4.60240   0.00000   0.00000 ; amine all-atom
  CO     CT     OH     HO      3     -0.44350   3.83255   0.72801  -4.11705   0.00000   0.00000 ; 
  CO     OS     CT     CT      3      1.71544   2.84512   1.04600  -5.60656   0.00000   0.00000 ; 
  CO     OS     CT     HC      3      1.58992   4.76976   0.00000  -6.35968   0.00000   0.00000 ; ethers AA
  C_3    CT     CT     CT      3     -9.08346   9.75709   3.45180  -4.12542   0.00000   0.00000 ; carboxylate ion
  C_3    CT     CT     HC      3     -0.47070  -1.41210   0.00000   1.88280   0.00000   0.00000 ; carboxylate ion
  C_3    CT_2   CT     CT      3     -9.08346   9.75709   3.45180  -4.12542   0.00000   0.00000 ; carboxylate ion
  C_3    CT_2   CT     HC      3     -0.47070  -1.41210   0.00000   1.88280   0.00000   0.00000 ; carboxylate ion
  C_2    CT     CT     CT      3     -4.23421   7.22159   1.90790  -4.89528   0.00000   0.00000 ; aldehyde & ketone
  C_2    CT     CT     HC      3     -0.15899  -0.47698   0.00000   0.63596   0.00000   0.00000 ; aldehyde & ketone
  C_2    OS     CT     CT      3     -2.19660   5.20071   0.52719  -3.53130   0.00000   0.00000 ; esters 
  C_2    OS     CT     HC      3      0.41421   1.24265   0.00000  -1.65686   0.00000   0.00000 ; esters
  CT_3   N      C      O       3     25.47638   0.00000 -25.47638   0.00000   0.00000   0.00000 ; 
  CT_3   N      C      CT      3     30.28798  -4.81160 -25.47638   0.00000   0.00000   0.00000 ; 
  CT_3   N      C      CT_2    3     30.28798  -4.81160 -25.47638   0.00000   0.00000   0.00000 ; 
  CT_3   N      CT_2   CT      3      6.87222  -9.94328   3.07105   0.00000   0.00000   0.00000 ; Pro CD-N-CA-CB
  CT_3   NT     CT_2   CT      3      6.87222  -9.94328   3.07105   0.00000   0.00000   0.00000 ; Pro CD-N-CA-CB
  CT_3   N      CT_2   HC      3      0.00000   0.00000   0.00000   0.00000   0.00000   0.00000 ; 
  CT_3   NT     CT_2   HC      3      0.00000   0.00000   0.00000   0.00000   0.00000   0.00000 ; 
  CT_3   CT     CT     HC      3      0.62760   1.88280   0.00000  -2.51040   0.00000   0.00000 ; 
  CT_3   CT     CT     CT_2    3      2.92880  -1.46440   0.20920  -1.67360   0.00000   0.00000 ; 
  CT_3   N3     CT_2   CT      3      6.87222  -9.94328   3.07105   0.00000   0.00000   0.00000 ; Pro CD-N-CA-CB
  CT_3   N3     CT_2   HC      3      0.00000   0.00000   0.00000   0.00000   0.00000   0.00000 ; 
  CQ     CT     CT     HC      3      0.96650   2.89951   0.00000  -3.86601   0.00000   0.00000 ; aromatics
  CR     CT     CT     HC      3      0.96650   2.89951   0.00000  -3.86601   0.00000   0.00000 ; aromatics
  CR     N*     CT     CT      3     -3.55640   2.09200   1.46440   0.00000   0.00000   0.00000 ; imidazoles, indoles, purines
  CR     N*     CT     OS      3     -9.41400   3.13800   6.27600   0.00000   0.00000   0.00000 ; imidazoles, indoles, purines
  CR     NA     CT     CT      3     -3.55640   2.09200   1.46440   0.00000   0.00000   0.00000 ; imidazoles, indoles, purines
  CR     NA     CT     OS      3     -9.41400   3.13800   6.27600   0.00000   0.00000   0.00000 ; imidazoles, indoles, purines
  CR     NA     CW     HA      3     13.38880   0.00000 -13.38880   0.00000   0.00000   0.00000 ; 
  CR     NA     CX     CT      3     11.71520   0.00000 -11.71520   0.00000   0.00000   0.00000 ; chi-3  in HID, HIP
  CR     NA     CX     CX      3     11.71520   0.00000 -11.71520   0.00000   0.00000   0.00000 ; chi-3  in HID, HIP
  CR     NA     CX     HA      3     13.38880   0.00000 -13.38880   0.00000   0.00000   0.00000 ; 
  CS     CT     CT     CT      3      2.92880  -1.46440   0.20920  -1.67360   0.00000   0.00000 ; 
  CS     CT     CT     HC      3      0.96650   2.89951   0.00000  -3.86601   0.00000   0.00000 ; aromatics
  CT     C      C      N       3     -0.20920   1.04600  -0.83680   0.00000   0.00000   0.00000 ; dicarbonyls                   
  CT     C      C      O       3      2.09200   0.00000  -2.09200   0.00000   0.00000   0.00000 ; dicarbonyls BMC 8,1881(2000)
  CT     C      C      CT      3     -4.81160  -1.46440   6.27600   0.00000   0.00000   0.00000 ; dicarbonyls BMC 8,1881(2000)
  CT     C      C      HC      3     -1.50624  -1.67360   3.17984   0.00000   0.00000   0.00000 ; dicarbonyls BMC 8,1881(2000)
  CT     C      N      H       3     20.50160   0.00000 -20.50160   0.00000   0.00000   0.00000 ; amides C-C(O)-N-H
  CT     C      N      CT      3     30.28798  -4.81160 -25.47638   0.00000   0.00000   0.00000 ; amides - V1 changed to 2.3
  CT     C      N      OH      3     39.31496  -2.94344 -27.62695  -8.74456   0.00000   0.00000 ; hydroxamic acids      
  CT     C      CT     CT      3      0.81797  -7.90567   0.60250   6.48520   0.00000   0.00000 ; ketone
  CT     C      CT     HC      3      0.57530   1.72590   0.00000  -2.30120   0.00000   0.00000 ; ketone
  CT     C      NC     CT      3     58.57600   0.00000 -58.57600   0.00000   0.00000   0.00000 ; imine 
  CT     C      OH     HO      3     26.15000  -3.13800 -23.01200   0.00000   0.00000   0.00000 ; carboxylic acid - aliphatic 
  CT_2   C      OH     HO      3     26.15000  -3.13800 -23.01200   0.00000   0.00000   0.00000 ; COOH terminus
  CT     C      OS     CT      3     31.20637  -9.76754 -21.43881   0.00000   0.00000   0.00000 ; esters 
  CT     N      C      O       3     25.47638   0.00000 -25.47638   0.00000   0.00000   0.00000 ; amides  O-C(O)-N-C
  CT     N      C      HC      3     30.28798  -4.81160 -25.47638   0.00000   0.00000   0.00000 ; amides - V1 changed to 2.3
  CT     N      C      OH      3     30.28798  -4.81160 -25.47638   0.00000   0.00000   0.00000 ; carbamates
  CT     N      C      OS      3     30.28798  -4.81160 -25.47638   0.00000   0.00000   0.00000 ; carbamates      
  CT     N      CA     N2      3     33.20422   0.00000 -33.20422   0.00000   0.00000   0.00000 ; methylguanidinium ion
  CT     N      CT     HC      3      0.00000   0.00000   0.00000   0.00000   0.00000   0.00000 ; tert. amide
  CT     N      SY     CT      3     -2.89742  11.18174  12.40975 -20.69406   0.00000   0.00000 ; sulfonamide
  CT     S      S      CT      3    -27.45332  10.70058  31.02018 -14.26744   0.00000   0.00000 ; disulfide all-atom
  CT     S      CT     HC      3      1.35352   4.06057   0.00000  -5.41410   0.00000   0.00000 ; sulfide all-atom
  CT     C+     CT     CT      3     -4.18400   0.00000   4.18400   0.00000   0.00000   0.00000 ; carbocation 
  CT     C+     CT     HC      3     -4.18400   0.00000   4.18400   0.00000   0.00000   0.00000 ; carbocation 
  CT     C=     C=     HC      3      0.62760   1.88280   0.00000  -2.51040   0.00000   0.00000 ; hydrocarbon all-atom
  CT     C=     CM     CT      3     58.57600   0.00000 -58.57600   0.00000   0.00000   0.00000 ; alkene
  CT     C=     CM     HC      3     58.57600   0.00000 -58.57600   0.00000   0.00000   0.00000 ; alkene
  CT     CM     C=     HC      3     58.57600   0.00000 -58.57600   0.00000   0.00000   0.00000 ; alkene
  CT     CM     CT     CT      3      6.32202  -2.48530   0.70710  -4.54382   0.00000   0.00000 ; alkenes
  CT     CM     CT     HC      3      0.62760   1.88280   0.00000  -2.51040   0.00000   0.00000 ; hydrocarbon all-atom
  CT     CM     OS     CT      3      1.71544   2.84512   1.04600  -5.60656   0.00000   0.00000 ; ethers AA
  CT     CO     OS     CT      3      1.71544   2.84512   1.04600  -5.60656   0.00000   0.00000 ; ethers AA
  CT     CT     C      F       3      0.00000   0.00000   0.00000   0.00000   0.00000   0.00000 ; acyl halide
  CT     CT     C      N       3      4.83252  -7.65254   1.68196   1.13805   0.00000   0.00000 ; propanamide
  CT     CT     C      O       3      4.87855   0.00000  -4.87855   0.00000   0.00000   0.00000 ; propanamide
  CT_2   CT     C      O       3      4.87855   0.00000  -4.87855   0.00000   0.00000   0.00000 ; Sidechain.
  CT     CT     C      Cl      3      0.00000   0.00000   0.00000   0.00000   0.00000   0.00000 ; acyl halide
  CT     CT     C      HC      3      0.00000   0.00000   0.00000   0.00000   0.00000   0.00000 ; aldehyde
  CT     CT     C      OH      3      5.31786   0.73220  -2.28446  -3.76560   0.00000   0.00000 ; RCOOH acid
  CT_2   CT     C      OH      3      5.31786   0.73220  -2.28446  -3.76560   0.00000   0.00000 ; RCOOH acid
  CT     CT_2   C      OH      3      5.31786   0.73220  -2.28446  -3.76560   0.00000   0.00000 ; COOH terminus
  CT     CT     C      OS      3     -1.15688  -3.47063   0.00000   4.62750   0.00000   0.00000 ; esters
  CT     CT     C      O_3     3      2.28446   0.00000  -2.28446   0.00000   0.00000   0.00000 ; RCOOH acid
  CT_2   CT     C      O_3     3      2.28446   0.00000  -2.28446   0.00000   0.00000   0.00000 ; RCOOH acid
  CT     CT_2   C      O_3     3      2.28446   0.00000  -2.28446   0.00000   0.00000   0.00000 ; COOH terminus
  CT_2   CT     C_3    O2      3      2.28446   0.00000  -2.28446   0.00000   0.00000   0.00000 ; COOH terminus
  CT     CT     N      H       3      0.00000   0.00000   0.00000   0.00000   0.00000   0.00000 ; N-ethylformamide, peptides
  CT     CT     N      CY      3     30.28798  -4.81160 -25.47638   0.00000   0.00000   0.00000 ; small ring amides
  CT     CT     N      SY      3     -3.43088  -3.00830  10.59807  -4.15890   0.00000   0.00000 ; sulfonamide
  CT     CT     S      S       3      2.51876   1.80749   3.49782  -7.82408   0.00000   0.00000 ; disulfide all-atom
  CT     CT     S      CT      3      0.94140   2.31375   2.40999  -5.66514   0.00000   0.00000 ; sulfide all-atom
  CT     CT     C*     CW      3     -1.49369   1.49369   0.00000   0.00000   0.00000   0.00000 ; 3-ethylindole 
  CT_2   CT     C*     CW      3     -1.49369   1.49369   0.00000   0.00000   0.00000   0.00000 ; TRP Chi-2
  CT     CT     C+     HC      3     -4.18400   0.00000   4.18400   0.00000   0.00000   0.00000 ; carbocation
  CT     CT     CO     HC      3      0.62760   1.88280   0.00000  -2.51040   0.00000   0.00000 ; acetal                 
  CT     CT     CS     CW      3     -1.49369   1.49369   0.00000   0.00000   0.00000   0.00000 ; 3-ethylindole
  CT     CT     CT     F       3      1.46440   1.88280   0.00000  -3.34720   0.00000   0.00000 ; alkyl fluoride
  CT     CT     CT     N       3      5.48732   0.02719   0.00000  -5.51451   0.00000   0.00000 ; N-propylformamide
  CT     CT     CT     S       3      3.42461  -3.85974   2.59408  -2.15895   0.00000   0.00000 ; sulfide all-atom
  CT     CT     CT     CT      3      2.92880  -1.46440   0.20920  -1.67360   0.00000   0.00000 ; hydrocarbon all-atom
  CT     CT     CT     CU      3     -4.96013   6.28646   1.30959  -2.63592   0.00000   0.00000 ; butanamide
  CT     CT     CT     Cl      3      0.83680   2.51040   0.00000  -3.34720   0.00000   0.00000 ; alkyl chloride
  CT     CT     CT     HC      3      0.62760   1.88280   0.00000  -2.51040   0.00000   0.00000 ; hydrocarbon all-atom
  CT     CT     CT     N2      3      5.77183  -2.67148   0.95814  -4.05848   0.00000   0.00000 ; 
  CT     CT     CT     N3      3      5.77183  -2.67148   0.95814  -4.05848   0.00000   0.00000 ; ammonium ion all-atom
  CT     CT     CT     NA      3      5.77183  -2.67148   0.95814  -4.05848   0.00000   0.00000 ; 
  CT     CT     CT     NC      3      5.77183  -2.67148   0.95814  -4.05848   0.00000   0.00000 ; 
  CT     CT     CT     NT      3      3.33465  -1.55226   2.82001  -4.60240   0.00000   0.00000 ; amine all-atom
  CT     CT     CT_2   NT      3      3.33465  -1.55226   2.82001  -4.60240   0.00000   0.00000 ; H2N-terminus.
  CT     CT     CT     NY      3      5.77183  -2.67148   0.95814  -4.05848   0.00000   0.00000 ; 
  CT     CT     CT     OH      3      2.87441   0.58158   2.09200  -5.54799   0.00000   0.00000 ; alcohols, ethers AA
  CT     CT     CT     OS      3      2.87441   0.58158   2.09200  -5.54799   0.00000   0.00000 ; alcohols, ethers AA
  CT     CT     CT     SH      3      2.78446   0.27823   0.82844  -3.89112   0.00000   0.00000 ; thiol all-atom
  CT     CT     CT     SY      3      2.78446   0.27823   0.82844  -3.89112   0.00000   0.00000 ; thiol all-atom (mod 11/99)
  CT     CT     CT     CT_2    3      2.92880  -1.46440   0.20920  -1.67360   0.00000   0.00000 ; peptide sidechain
  CT     CT     CT     SY2     3      3.92459  -3.92459   0.00000   0.00000   0.00000   0.00000 ;  
  CT     CT     CV     CW      3      0.00000   0.00000   0.00000   0.00000   0.00000   0.00000 ; 
  CT     CT     CV     NB      3      4.90992  -1.78029   1.09621  -4.22584   0.00000   0.00000 ; 5-ethylimidazole 
  CT     CT     CW     NA      3      1.04600  -3.55640   2.51040   0.00000   0.00000   0.00000 ; 2-ethyl pyrrole 
  CT     CT     CZ     CZ      3      0.00000   0.00000   0.00000   0.00000   0.00000   0.00000 ; alkynes
  CT     CT     N2     H       3     -1.26775   3.02085   1.74473  -3.49782   0.00000   0.00000 ; guanidinium
  CT     CT     N2     H3      3     -1.26775   3.02085   1.74473  -3.49782   0.00000   0.00000 ; amine all-atom,  
  CT     CT     N3     H       3      0.72592   2.17777   0.00000  -2.90370   0.00000   0.00000 ; ammonium ion all-atom
  CT     CT     N3     CT      3      3.04176  -1.35144   0.51881  -2.20915   0.00000   0.00000 ; 2ary ammonium
  CT     CT     N3     H3      3     -1.26775   3.02085   1.74473  -3.49782   0.00000   0.00000 ; amine all-atom
  CT     CT     NC     NZ      3      0.00000   0.00000   0.00000   0.00000   0.00000   0.00000 ; azides
  CT     CT     NO     ON      3      1.67360   0.00000  -1.67360   0.00000   0.00000   0.00000 ; CT-CT-NO-ON  nitroethane
  CT     CT     NT     H       3     -1.26775   3.02085   1.74473  -3.49782   0.00000   0.00000 ; amine all-atom
  CT     CT_3   NT     H       3     -1.26775   3.02085   1.74473  -3.49782   0.00000   0.00000 ; amine all-atom
  CT     CT_2   NT     H       3     -1.26775   3.02085   1.74473  -3.49782   0.00000   0.00000 ; H2N-terminus
  CT     CT     NT     CT      3      1.78866   3.49154   0.53555  -5.81576   0.00000   0.00000 ; amine all-atom
  CT     CT     NY     H       3     -1.26775   3.02085   1.74473  -3.49782   0.00000   0.00000 ; neutral ARG
  CT     CT     NY     H3      3     -1.26775   3.02085   1.74473  -3.49782   0.00000   0.00000 ; neutral ARG
  CT     CT     OH     HO      3     -0.44350   3.83255   0.72801  -4.11705   0.00000   0.00000 ; alcohols AA  
  CT     CT_4   OH     HO      3      0.26778  -9.36798   9.10020   0.00000   0.00000   0.00000 ; trifluoroethanol
  CT     CT     OS     CT      3      1.71544   2.84512   1.04600  -5.60656   0.00000   0.00000 ; ethers AA
  CT     CT     P+     CT      3      1.04600   1.04600   2.09200  -4.18400   0.00000   0.00000 ; phosphonium ion
  CT     CT     SH     HS      3     -1.34516   5.85551   1.17989  -5.69024   0.00000   0.00000 ; thiol all-atom  (mod 11/99)
  CT     CT     SY     N       3      0.00628  -4.19864   3.21331   0.97905   0.00000   0.00000 ; sulfonamide
  CT     CT     C_3    O2      3      3.43088   0.00000  -3.43088   0.00000   0.00000   0.00000 ; carboxylate ion   
  CT     CT_2   C_3    O2      3      3.43088   0.00000  -3.43088   0.00000   0.00000   0.00000 ; carboxylate ion   
  CT     CT     C_2    HC      3      0.00000   0.00000   0.00000   0.00000   0.00000   0.00000 ; aldehyde
  CT     CT     C_2    OS      3     -1.15688  -3.47063   0.00000   4.62750   0.00000   0.00000 ; esters 
  CT     CT     C_2    O_2     3      3.10662  -3.77606  -5.13795   5.80739   0.00000   0.00000 ; aldehyde & ketone
  CT     CT     CT_3   N       3     -0.76567   2.70705   4.02501  -5.96639   0.00000   0.00000 ; 
  CT     CT     CT_3   NT      3     -0.76567   2.70705   4.02501  -5.96639   0.00000   0.00000 ; 
  CT     CT     CT_3   HC      3      0.62760   1.88280   0.00000  -2.51040   0.00000   0.00000 ; 
  CT     CT     CT_3   N3      3     -0.76567   2.70705   4.02501  -5.96639   0.00000   0.00000 ; Chi-1 peptides AA
  CT     CT     CT_2   N       3     -0.76567   2.70705   4.02501  -5.96639   0.00000   0.00000 ; Chi-1 peptides AA
  CT     CT     CT_2   HC      3      0.62760   1.88280   0.00000  -2.51040   0.00000   0.00000 ; hydrocarbon all-atom
  CT     CT     CT_2   N3      3     -0.76567   2.70705   4.02501  -5.96639   0.00000   0.00000 ; Chi-1 peptides AA
  CT     CT     SY2    CT      3      0.00000   0.00000   0.00000   0.00000   0.00000   0.00000 ; sulfone
  CT     CT     SY2    OY      3      0.00000   0.00000   0.00000   0.00000   0.00000   0.00000 ; sulfone
  CT     CX     NA     H       3     11.71520   0.00000 -11.71520   0.00000   0.00000   0.00000 ; chi-3  in HID, HIP
  CT     CY     CY     CY      3      2.92880  -1.46440   0.20920  -1.67360   0.00000   0.00000 ; cycropropane 
  CT     CY     CY     HC      3      0.62760   1.88280   0.00000  -2.51040   0.00000   0.00000 ; small ring  *new* 11/99
  CT     N2     CA     N       3     33.20422   0.00000 -33.20422   0.00000   0.00000   0.00000 ; methylguanidinium ion
  CT     N2     CA     N2      3     33.20422   0.00000 -33.20422   0.00000   0.00000   0.00000 ; methylguanidinium ion
  CT     NY     CA     NZ      3     33.20422   0.00000 -33.20422   0.00000   0.00000   0.00000 ; ARGN.
  CT     NY     CA     NY      3     33.20422   0.00000 -33.20422   0.00000   0.00000   0.00000 ; ARGN.
  CT     N3     CT     HC      3      0.63179   1.89535   0.00000  -2.52714   0.00000   0.00000 ; 2ary ammonium
  CT     NC     NZ     NZ      3      0.00000   0.00000   0.00000   0.00000   0.00000   0.00000 ; azides
  CT     NT     CT     HC      3      1.17152   3.51456   0.00000  -4.68608   0.00000   0.00000 ; amine all-atom
  CT     NT     NT     H       3      0.62760   1.88280   0.00000  -2.51040   0.00000   0.00000 ; generic
  CT     NT     NT     CT      3      0.62760   1.88280   0.00000  -2.51040   0.00000   0.00000 ; generic hydrazines
  CT     NT     OH     HO      3      0.62760   1.88280   0.00000  -2.51040   0.00000   0.00000 ; generic
  CT     NT     OS     CT      3      0.62760   1.88280   0.00000  -2.51040   0.00000   0.00000 ; generic hydroxylamines
  CT     OS     C      N       3     16.73600   4.18400 -20.92000   0.00000   0.00000   0.00000 ; carbamates
  CT     OS     C      O       3     20.92000   0.00000 -20.92000   0.00000   0.00000   0.00000 ; benzoic acids & esters 
  CT     OS     C      HC      3     31.20637  -9.76754 -21.43881   0.00000   0.00000   0.00000 ; esters
  CT     OS     P      CT      3     -3.34720   2.09200  13.80720 -12.55200   0.00000   0.00000 ; phosphonates
  CT     OS     P      O2      3      1.17570   3.52711   0.00000  -4.70281   0.00000   0.00000 ; Me2PO4 (-)
  CT     OS     P      OS      3      -8.9956   3.13800  10.04160  -4.18400   0.00000   0.00000 ; Me2PO4 (-), from Amber.
  CT     OS     CM     HC      3      1.58992   4.76976   0.00000  -6.35968   0.00000   0.00000 ; ethers AA
  CT     OS     CO     HC      3      1.58992   4.76976   0.00000  -6.35968   0.00000   0.00000 ; ethers AA
  CT     OS     CO     OH      3     -6.45801   0.80961   5.68187  -0.03347   0.00000   0.00000 ; hexopyranoses
  CT     OS     CO     OS      3     -6.45801   0.80961   5.68187  -0.03347   0.00000   0.00000 ; hexopyranoses
  CT     OS     CT     HC      3      1.58992   4.76976   0.00000  -6.35968   0.00000   0.00000 ; ethers AA
  CT     OS     CT     OH      3     -5.35761  13.61683   8.44331 -16.70253   0.00000   0.00000 ; acetals AA 
  CT     OS     CT     OS      3     -5.35761  13.61683   8.44331 -16.70253   0.00000   0.00000 ; acetals AA 
  CT     OS     NT     H       3      0.62760   1.88280   0.00000  -2.51040   0.00000   0.00000 ; generic
  CT     OS     C_2    HC      3     31.20637  -9.76754 -21.43881   0.00000   0.00000   0.00000 ; esters
  CT     OS     C_2    O_2     3     21.43881   0.00000 -21.43881   0.00000   0.00000   0.00000 ; esters 
  CT     P+     CT     HC      3      0.62760   1.88280   0.00000  -2.51040   0.00000   0.00000 ; phosphonium ion
  CT     SY     N      H       3    -15.61050   0.70291  20.50579  -5.59819   0.00000   0.00000 ; sulfonamide
  CT     C_2    C=     HC      3      0.57530   1.72590   0.00000  -2.30120   0.00000   0.00000 ; ketone
  CT     C_2    CT     CT      3      0.81797  -7.90567   0.60250   6.48520   0.00000   0.00000 ; ketone
  CT     C_2    CT     HC      3      0.57530   1.72590   0.00000  -2.30120   0.00000   0.00000 ; ketone
  CT     C_2    OS     CT      3     31.20637  -9.76754 -21.43881   0.00000   0.00000   0.00000 ; esters 
  CT     CT_3   N      CT_2    3     -8.97677 -76.68644  -8.61067  94.27389   0.00000   0.00000 ; Pro CG-CD-N-CA
  CT     CT_3   NT     CT_2    3     -8.97677 -76.68644  -8.61067  94.27389   0.00000   0.00000 ; Pro CG-CD-N-CA
  CT     CT_3   N3     H3      3     -1.26775   3.02085   1.74473  -3.49782   0.00000   0.00000 ; amine all-atom,
  CT     CT_3   N3     CT_2    3     -8.97677 -76.68644  -8.61067  94.27389   0.00000   0.00000 ; Pro CG-CD-N-CA
  CT     CT_2   C      N       3      5.00825  -1.69870  -0.37238  -2.93716   0.00000   0.00000 ; Psi prime peptides AA
  CT     CT_2   C      O       3      0.00000   0.00000   0.00000   0.00000   0.00000   0.00000 ; peptides  X-CT_2-C(O)-O
  CT     CT_2   N      H       3      0.00000   0.00000   0.00000   0.00000   0.00000   0.00000 ; peptides  H-N-CA-R
  CT     CT_2   N3     H3      3      0.72592   2.17777   0.00000  -2.90370   0.00000   0.00000 ; peptides  H-N-CA-R
  CT     SY2    CT     HC      3      0.73220   2.19660   0.00000  -2.92880   0.00000   0.00000 ; sulfone
  CT_2   C      N      H       3     20.50160   0.00000 -20.50160   0.00000   0.00000   0.00000 ; peptide C-C(O)-N-H 
  CT_2   C      N      CT_2    3     30.28798  -4.81160 -25.47638   0.00000   0.00000   0.00000 ; peptide - V1 changed to 2.3
  CT     C      N      CT_2    3     30.28798  -4.81160 -25.47638   0.00000   0.00000   0.00000 ; peptide for ACE
  CT     N      C      CT_2    3     30.28798  -4.81160 -25.47638   0.00000   0.00000   0.00000 ; peptide for NAC
  CT_2   N      C      O       3     25.47638   0.00000 -25.47638   0.00000   0.00000   0.00000 ; peptide  O-C(O)-N-C 
  CT_2   N      C      HC      3     30.28798  -4.81160 -25.47638   0.00000   0.00000   0.00000 ; peptide - V1 changed to 2.3
  CT_2   N      CT     HC      3      0.00000   0.00000   0.00000   0.00000   0.00000   0.00000 ; peptide tert. amide 
  CT_2   N      CT_3   HC      3      0.00000   0.00000   0.00000   0.00000   0.00000   0.00000 ; 
  CT_2   NT     CT_3   HC      3      0.00000   0.00000   0.00000   0.00000   0.00000   0.00000 ; 
  CT_2   N      CT_2   HC      3      0.00000   0.00000   0.00000   0.00000   0.00000   0.00000 ; peptide tert. amide
  CT     CT     C      O2      3      2.28446   0.00000  -2.28446   0.00000   0.00000   0.00000 ; ASP
  CT_2   CT     C      O2      3      2.28446   0.00000  -2.28446   0.00000   0.00000   0.00000 ; ASP
  CT_2   CT     C      N       3     -9.49768  -6.36386   8.89936   6.96218   0.00000   0.00000 ; ASN
  CT_2   CT     CT     S       3      3.42461  -3.85974   2.59408  -2.15895   0.00000   0.00000 ; MET
  CT_2   CT     CT     HC      3      0.62760   1.88280   0.00000  -2.51040   0.00000   0.00000 ; hydrocarbon all-atom
  CT_2   CT     CV     CW      3      0.00000   0.00000   0.00000   0.00000   0.00000   0.00000 ; 
  CT_2   CT     CV     NB      3      4.73838  -1.52507   1.30541  -4.51872   0.00000   0.00000 ; HID, HIE, HIP    
  CT_2   CT     CW     CV      3      0.00000   0.00000   0.00000   0.00000   0.00000   0.00000 ; 
  CT_2   CT     CW     NA      3      4.73838  -1.52507   1.30541  -4.51872   0.00000   0.00000 ; HID, HIE, HIP
  CT_2   CT     CX     CX      3      0.00000   0.00000   0.00000   0.00000   0.00000   0.00000 ; 
  CT_2   CT     CX     NA      3      4.73838  -1.52507   1.30541  -4.51872   0.00000   0.00000 ; HID, HIE, HIP    
  CT_2   CT     OH     HO      3     -4.16308   6.71114   3.63590  -6.18395   0.00000   0.00000 ; Ser & Thr 02/00
  CT_2   CT     SH     HS      3     -1.50624   5.37225   1.17989  -5.04590   0.00000   0.00000 ; thiol all-atom
  CT_2   N3     CT_3   HC      3      0.00000   0.00000   0.00000   0.00000   0.00000   0.00000 ; 
  CU     CT     CT     HC      3      0.96650   2.89951   0.00000  -3.86601   0.00000   0.00000 ; aromatics
  CU     CT     SY     N       3      0.00628  -4.19864   3.21331   0.97905   0.00000   0.00000 ; sulfonamide
  CV     CT     CT     HC      3      0.96650   2.89951   0.00000  -3.86601   0.00000   0.00000 ; aromatics
  CV     CT     CT_2   N       3     -0.76567   2.70705   4.02501  -5.96639   0.00000   0.00000 ; Chi-1 peptides AA
  CV     CT     CT_2   HC      3      0.96650   2.89951   0.00000  -3.86601   0.00000   0.00000 ; 
  CV     CT     CT_2   N3      3     -0.76567   2.70705   4.02501  -5.96639   0.00000   0.00000 ; Chi-1 peptides AA
  CV     CW     CT     HC      3      0.00000   0.00000   0.00000   0.00000   0.00000   0.00000 ; HID, HIE, HIP, Also Use: H-C-C-C(bz) 
  CW     C*     CT     HC      3     -1.00416  -3.01248   0.00000   4.01664   0.00000   0.00000 ; 3-methylindole
  CW     CS     CT     HC      3     -1.00416  -3.01248   0.00000   4.01664   0.00000   0.00000 ; 3-methylindole
  CW     CT     CT     HC      3      0.96650   2.89951   0.00000  -3.86601   0.00000   0.00000 ; aromatics
  CW     CT     CT_2   N       3     -0.76567   2.70705   4.02501  -5.96639   0.00000   0.00000 ; Chi-1 peptides AA
  CW     CT     CT_2   HC      3      0.96650   2.89951   0.00000  -3.86601   0.00000   0.00000 ; 
  CW     CT     CT_2   N3      3     -0.76567   2.70705   4.02501  -5.96639   0.00000   0.00000 ; Chi-1 peptides AA
  CW     CV     CT     HC      3      0.00000   0.00000   0.00000   0.00000   0.00000   0.00000 ; HID, HIE, HIP, Also Use: H-C-C-C(bz) 
  CW     NA     CR     HA      3     19.45560   0.00000 -19.45560   0.00000   0.00000   0.00000 ; chi-4  in HID, &chi-4,4 prime,5 in HIP
  CW     NA     CR     NB      3     19.45560   0.00000 -19.45560   0.00000   0.00000   0.00000 ; chi-4  in HID, chi-5 in HIE
  CX     CT     CT     HC      3      0.96650   2.89951   0.00000  -3.86601   0.00000   0.00000 ; 
  CX     CT     CT_2   N       3     -0.76567   2.70705   4.02501  -5.96639   0.00000   0.00000 ; Chi-1 peptides 
  CX     CT     CT_2   HC      3      0.96650   2.89951   0.00000  -3.86601   0.00000   0.00000 ; 
  CX     CT     CT_2   N3      3     -0.76567   2.70705   4.02501  -5.96639   0.00000   0.00000 ; Chi-1 peptides AA
  CX     CX     CT     HC      3      0.00000   0.00000   0.00000   0.00000   0.00000   0.00000 ; HID, HIE, HIP, Also Use: H-C-C-C(bz)
  CX     CX     NA     H       3     11.71520   0.00000 -11.71520   0.00000   0.00000   0.00000 ; chi-3  in HID, HIP
  CX     N2     CA     N2      3     33.20422   0.00000 -33.20422   0.00000   0.00000   0.00000 ; methylguanidinium ion
  CX     NA     CR     HA      3     19.45560   0.00000 -19.45560   0.00000   0.00000   0.00000 ; chi-5  in HIE
  CX     NA     CR     NA      3     19.45560   0.00000 -19.45560   0.00000   0.00000   0.00000 ; chi-5  in HIE
  CY     N      C      O       3     25.47638   0.00000 -25.47638   0.00000   0.00000   0.00000 ; small ring amides
  CY     CY     N      H       3      0.00000   0.00000   0.00000   0.00000   0.00000   0.00000 ; small ring
  CY     CY     CT     HC      3      0.62760   1.88280   0.00000  -2.51040   0.00000   0.00000 ; small ring  *new* 11/99
  CY     CY     CY     HC      3      0.62760   1.88280   0.00000  -2.51040   0.00000   0.00000 ; hydrocarbon all-atom
  CZ     CT     CT     HC      3      0.76567   2.29701   0.00000  -3.06269   0.00000   0.00000 ; alkyne, nitrile
  CZ     CZ     CT     HC      3      0.00000   0.00000   0.00000   0.00000   0.00000   0.00000 ; alkynes
  Cl     C      CT     HC      3      0.75312   2.25936   0.00000  -3.01248   0.00000   0.00000 ; acyl halide
  Cl     CM     CM     Cl      3     55.22880   3.34720 -58.57600   0.00000   0.00000   0.00000 ; chloroalkene
  Cl     CT     CT     Cl      3     -0.52300   0.52300   0.00000   0.00000   0.00000   0.00000 ; dichloride
  Cl     CT     CT     HC      3      0.83680   2.51040   0.00000  -3.34720   0.00000   0.00000 ; alkyl chloride
  Cl     CT     CT     NT      3      4.18400  -4.18400   0.00000   0.00000   0.00000   0.00000 ; 2-chloroethylamin
  F      C      CT     HC      3      0.75312   2.25936   0.00000  -3.01248   0.00000   0.00000 ; acyl halide
  F      CT     CT     F       3     -5.23000   5.23000   0.00000   0.00000   0.00000   0.00000 ; 1,2-difluoride
  F      CT     CT     HC      3      0.83680   2.51040   0.00000  -3.34720   0.00000   0.00000 ; alkyl fluoride
  F      CT     CT     OH      3      1.12968   3.38904   0.00000  -4.51872   0.00000   0.00000 ; trifluoroethanol
  F      CT     CT_4   HC      3      0.65689   1.97066   0.00000  -2.62755   0.00000   0.00000 ; trifluoroethanol
  F      CT     CT_4   OH      3      1.12968   3.38904   0.00000  -4.51872   0.00000   0.00000 ; trifluoroethanol
  H      N      C      N       3     20.50160   0.00000 -20.50160   0.00000   0.00000   0.00000 ; imides
  H      N      C      O       3     20.50160   0.00000 -20.50160   0.00000   0.00000   0.00000 ; amides wlj 6/20/97
  H      N      C      HC      3     20.50160   0.00000 -20.50160   0.00000   0.00000   0.00000 ; amides 
  H      N      C      OH      3     20.50160   0.00000 -20.50160   0.00000   0.00000   0.00000 ; carbamates
  H      N      C      OS      3     20.50160   0.00000 -20.50160   0.00000   0.00000   0.00000 ; carbamates
  H      N      CT     HC      3      0.00000   0.00000   0.00000   0.00000   0.00000   0.00000 ; N-methylformamide
  H      N      CY     HC      3      0.00000   0.00000   0.00000   0.00000   0.00000   0.00000 ; small ring
  H      N      OH     HO      3    -15.86991  -5.69442  21.56434   0.00000   0.00000   0.00000 ; hydroxamic acids
  H      N      CT_2   HC      3      0.00000   0.00000   0.00000   0.00000   0.00000   0.00000 ; peptides  H-N-CA-HC
  H      N      CT_2   C       3      0.00000   0.00000   0.00000   0.00000   0.00000   0.00000 ; peptides  H-N-CA-CT
  H      N2     CA     N2      3     16.31760   0.00000 -16.31760   0.00000   0.00000   0.00000 ; guanidinium ion
  H      N2     CA     NC      3      2.92880  -2.92880   0.00000   0.00000   0.00000   0.00000 ; Adenine RZ 
  H      N2     CT     HC      3      0.00000   0.00000   0.00000   0.00000   0.00000   0.00000 ; methylguanidinium ion
  H      N3     CT     HC      3      0.54601   1.63803   0.00000  -2.18405   0.00000   0.00000 ; ammonium ion all-atom
  H      NA     CR     HA      3     19.45560   0.00000 -19.45560   0.00000   0.00000   0.00000 ; chi-4  in HID
  H      NA     CR     NA      3     19.45560   0.00000 -19.45560   0.00000   0.00000   0.00000 ; chi-5  in HIE
  H      NA     CR     NB      3     19.45560   0.00000 -19.45560   0.00000   0.00000   0.00000 ; chi-4  in HID 
  H      NA     CW     HA      3     12.55200   0.00000 -12.55200   0.00000   0.00000   0.00000 ; chi-4  in TRP
  H      NA     CX     HA      3     13.38880   0.00000 -13.38880   0.00000   0.00000   0.00000 ; chi-4 prime in HIE
  H      NT     CT     HC      3      0.83680   2.51040   0.00000  -3.34720   0.00000   0.00000 ; amine all-atom
  H      NT     CT_3   HC      3      0.83680   2.51040   0.00000  -3.34720   0.00000   0.00000 ; amine all-atom
  H      NT     CT_2   HC      3      0.83680   2.51040   0.00000  -3.34720   0.00000   0.00000 ; H2N-terminus
  H      NT     NT     H       3      0.62760   1.88280   0.00000  -2.51040   0.00000   0.00000 ; generic
  H      NT     OH     HO      3      0.62760   1.88280   0.00000  -2.51040   0.00000   0.00000 ; generic
  H      NY     CA     NY      3     -1.26775   3.02085   1.74473  -3.49782   0.00000   0.00000 ; neutral ARG
  H3     NY     CA     NY      3     -1.26775   3.02085   1.74473  -3.49782   0.00000   0.00000 ; neutral ARG
  H      NY     CA     NZ      3     -1.26775   3.02085   1.74473  -3.49782   0.00000   0.00000 ; neutral ARG
  H3     NY     CA     NZ      3     -1.26775   3.02085   1.74473  -3.49782   0.00000   0.00000 ; neutral ARG
  H3     N2     CA     N2      3     16.31760   0.00000 -16.31760   0.00000   0.00000   0.00000 ; guanidinium ion
  H3     N2     CT     HC      3      0.00000   0.00000   0.00000   0.00000   0.00000   0.00000 ; methylguanidinium ion
  H3     N3     CT_3   HC      3      0.54601   1.63803   0.00000  -2.18405   0.00000   0.00000 ; peptides  H-N-CA-HC
  H3     N3     CT_2   HC      3      0.54601   1.63803   0.00000  -2.18405   0.00000   0.00000 ; peptides  H-N-CA-HC
  H3     N3     CT     HC      3      0.54601   1.63803   0.00000  -2.18405   0.00000   0.00000 ; ammonium ion all-atom
  H3     NY     CT     HC      3      0.00000   0.00000   0.00000   0.00000   0.00000   0.00000 ; methylguanidinium ion
  H3     NZ     CA     NY      3     16.31760   0.00000 -16.31760   0.00000   0.00000   0.00000 ; ARGN
  HC     C      C      N       3     -0.62760   1.88280  -1.25520   0.00000   0.00000   0.00000 ; dicarbonyls BMC 8,1881(2000)
  HC     C      C      O       3      0.83680   0.00000  -0.83680   0.00000   0.00000   0.00000 ; dicarbonyls BMC 8,1881(2000)
  HC     C      C      HC      3      1.67360  -1.67360   0.00000   0.00000   0.00000   0.00000 ; dicarbonyls BMC 8,1881(2000)
  HC     C      CT     HC      3      0.75312   2.25936   0.00000  -3.01248   0.00000   0.00000 ; aldehyde
  HC     C      NC     HC      3     58.57600   0.00000 -58.57600   0.00000   0.00000   0.00000 ; imine 
  HC     C      OH     HO      3     26.15000  -3.13800 -23.01200   0.00000   0.00000   0.00000 ; carboxylic acid - aliphatic
  HC     C=     C=     HC      3      0.62760   1.88280   0.00000  -2.51040   0.00000   0.00000 ; 
  HC     C=     CM     HC      3     58.57600   0.00000 -58.57600   0.00000   0.00000   0.00000 ; alkene
  HC     C=     C_2    O_2     3      0.00000   0.00000   0.00000   0.00000   0.00000   0.00000 ; acrolein
  HC     CM     C      N       3      0.00000   0.00000   0.00000   0.00000   0.00000   0.00000 ; 
  HC     CM     C      O       3      0.00000   0.00000   0.00000   0.00000   0.00000   0.00000 ; 
  HC     CM     CT     HC      3      0.66525   1.99576   0.00000  -2.66102   0.00000   0.00000 ; alkene     
  HC     CT     C      N       3      0.00000   0.00000   0.00000   0.00000   0.00000   0.00000 ; acetamide
  HC     CT     C      O       3      0.00000   0.00000   0.00000   0.00000   0.00000   0.00000 ; all carbonyls
  HC     CT     C      O2      3      0.00000   0.00000   0.00000   0.00000   0.00000   0.00000 ; caboxylates
  HC     CT     C      OH      3      0.00000   0.00000   0.00000   0.00000   0.00000   0.00000 ; RCOOH acid
  HC     CT     C      OS      3      0.27615   0.82844   0.00000  -1.10458   0.00000   0.00000 ; esters
  HC     CT     C      O_2     3      0.00000   0.00000   0.00000   0.00000   0.00000   0.00000 ; aldehyde, ketone, ester
  HC     CT     C      O_3     3      0.00000   0.00000   0.00000   0.00000   0.00000   0.00000 ; RCOOH acid
  HC     CT     N      SY      3     -2.93508  -1.91418   6.09609  -1.24684   0.00000   0.00000 ; sulfonamide
  HC     CT     P      O2      3      0.52300   1.56900   0.00000  -2.09200   0.00000   0.00000 ; phosphonates
  HC     CT     P      OS      3      0.52300   1.56900   0.00000  -2.09200   0.00000   0.00000 ; phosphonates
  HC     CT     S      S       3      1.16734   3.50201   0.00000  -4.66935   0.00000   0.00000 ; disulfide all-atom
  HC     CT     CA     N2      3     -4.09614   5.08775   2.96645  -3.95806   0.00000   0.00000 ; MDDR amine all-atom
  HC     CT     CA     NT      3     -4.09614   5.08775   2.96645  -3.95806   0.00000   0.00000 ; amine all-atom
  HC     CT     CO     OS      3      0.97905   2.93716   0.00000  -3.91622   0.00000   0.00000 ; alcohols, ethers AA
  HC     CT     CT     N       3      0.97069   2.91206   0.00000  -3.88275   0.00000   0.00000 ; N-ethylformamide
  HC     CT     CT     S       3      0.94559   2.83675   0.00000  -3.78234   0.00000   0.00000 ; sulfide all-atom
  HC     CT     CT     HC      3      0.62760   1.88280   0.00000  -2.51040   0.00000   0.00000 ; hydrocarbon *new* 11/99
  HC     CT     CT     N2      3     -1.21755  -3.65264   0.00000   4.87018   0.00000   0.00000 ; ethylguanidinium ion
  HC     CT     CT     N3      3      0.80333   2.40999   0.00000  -3.21331   0.00000   0.00000 ; ammonium ion all-atom
  HC     CT     CT     NO      3     -0.47070  -1.41210   0.00000   1.88280   0.00000   0.00000 ; nitroethane
  HC     CT     CT     NT      3     -4.09614   5.08775   2.96645  -3.95806   0.00000   0.00000 ; amine all-atom
  HC     CT     CT_2   NT      3     -4.09614   5.08775   2.96645  -3.95806   0.00000   0.00000 ; H2N-terminus
  HC     CT     CT     NY      3     -1.21755  -3.65264   0.00000   4.87018   0.00000   0.00000 ; ARGN.
  HC     CT     CT     OH      3      0.97905   2.93716   0.00000  -3.91622   0.00000   0.00000 ; alcohols, ethers AA
  HC     CT     CT     OS      3      0.97905   2.93716   0.00000  -3.91622   0.00000   0.00000 ; alcohols, ethers AA
  HC     CT     CT     P+      3      0.62760   1.88280   0.00000  -2.51040   0.00000   0.00000 ; phosphonium ion
  HC     CT     CT     SH      3      0.94559   2.83675   0.00000  -3.78234   0.00000   0.00000 ; thiol all-atom
  HC     CT     CT     SY2     3      0.73220   2.19660   0.00000  -2.92880   0.00000   0.00000 ; sulfone
  HC     CT     CT     SY      3      0.94559   2.83675   0.00000  -3.78234   0.00000   0.00000 ; sulfide all-atom
  HC     CT     CU     NB      3      0.87864   2.63592   0.00000  -3.51456   0.00000   0.00000 ; from HC-CT-CV-NB
  HC     CT     CV     NB      3      0.87864   2.63592   0.00000  -3.51456   0.00000   0.00000 ; HID, HIE, HIP
  HC     CT     CW     NA      3      0.87864   2.63592   0.00000  -3.51456   0.00000   0.00000 ; HID, HIE, HIP Also Use: H-C-C-N 
  HC     CT     CX     NA      3      0.87864   2.63592   0.00000  -3.51456   0.00000   0.00000 ; HID, HIE, HIP
  HC     CT     NO     ON      3      0.00000   0.00000   0.00000   0.00000   0.00000   0.00000 ; HC-CT-NO-ON  nitro compounds
  HC     CT     OH     HO      3      0.94140   2.82420   0.00000  -3.76560   0.00000   0.00000 ; alcohols AA
  HC     CT_4   OH     HO      3      0.99579   2.98738   0.00000  -3.98316   0.00000   0.00000 ; trifluoroethanol
  HC     CT     OS     P       3      0.74684   2.24053   0.00000  -2.98738   0.00000   0.00000 ; Me2PO4 (-) 
  HC     CT     SH     HS      3      1.00416   3.01248   0.00000  -4.01664   0.00000   0.00000 ; thiol all-atom  (mod 11/99)
  HC     CT     SY     N       3      0.00000   0.00000   0.00000   0.00000   0.00000   0.00000 ; sulfonamide
  HC     CT     C_3    O2      3      0.00000   0.00000   0.00000   0.00000   0.00000   0.00000 ; carboxylate ion
  HC     CT_2   C_3    O2      3      0.00000   0.00000   0.00000   0.00000   0.00000   0.00000 ; carboxylate ion
  HC     CT     C_2    OS      3      0.27615   0.82844   0.00000  -1.10458   0.00000   0.00000 ; esters 
  HC     CT     C_2    O_2     3      0.00000   0.00000   0.00000   0.00000   0.00000   0.00000 ; aldehyde, ketone, ester
  HC     CT     CT_3   N       3      0.97069   2.91206   0.00000  -3.88275   0.00000   0.00000 ; 
  HC     CT     CT_3   NT      3      0.97069   2.91206   0.00000  -3.88275   0.00000   0.00000 ; 
  HC     CT     CT_3   N3      3      0.97069   2.91206   0.00000  -3.88275   0.00000   0.00000 ; N-ethylformamide
  HC     CT     CT_2   N       3      0.97069   2.91206   0.00000  -3.88275   0.00000   0.00000 ; peptide
  HC     CT     CT_2   HC      3      0.62760   1.88280   0.00000  -2.51040   0.00000   0.00000 ; hydrocarbon all-atom
  HC     CT     CT_2   N3      3      0.97069   2.91206   0.00000  -3.88275   0.00000   0.00000 ; peptide
  HC     CT     SY2    OY      3      0.73220   2.19660   0.00000  -2.92880   0.00000   0.00000 ; sulfone
  HC     CY     CY     HC      3      0.62760   1.88280   0.00000  -2.51040   0.00000   0.00000 ; small ring  *new* 11/99
  HC     NC     NZ     NZ      3      0.00000   0.00000   0.00000   0.00000   0.00000   0.00000 ; azides 
  HC     C_2    CT     HC      3      0.75312   2.25936   0.00000  -3.01248   0.00000   0.00000 ; aldehyde
  HC     CT_3   CT     HC      3      0.62760   1.88280   0.00000  -2.51040   0.00000   0.00000 ; 
  HC     CT_2   C      N       3      0.00000   0.00000   0.00000   0.00000   0.00000   0.00000 ; Psi bis peptides AA
  HC     CT_2   C      O       3      0.00000   0.00000   0.00000   0.00000   0.00000   0.00000 ; peptides  HC-CA-C(O)-O
  HC     CT_2   C      OH      3      0.00000   0.00000   0.00000   0.00000   0.00000   0.00000 ; RCOOH acid
  HC     CT_2   C      O_3     3      0.00000   0.00000   0.00000   0.00000   0.00000   0.00000 ; RCOOH acid
  HC     CT_2   CT     S       3      0.94559   2.83675   0.00000  -3.78234   0.00000   0.00000 ; thiol all-atom
  HC     CT_2   CT     OH      3      0.97905   2.93716   0.00000  -3.91622   0.00000   0.00000 ; alcohols, ethers AA
  HC     CT_2   CT     SH      3      0.94559   2.83675   0.00000  -3.78234   0.00000   0.00000 ; thiol all-atom
  HO     OH     C      N       3     16.73600   4.18400 -20.92000   0.00000   0.00000   0.00000 ; carbamates
  HO     OH     C      O       3     20.92000   0.00000 -20.92000   0.00000   0.00000   0.00000 ; benzoic acids & ester
  HO     OH     C      O_3     3     23.01200   0.00000 -23.01200   0.00000   0.00000   0.00000 ; carboxylic acid - aliphatic
  HO     OH     P      O       3      0.00000   0.00000   0.00000   0.00000   0.00000   0.00000 ; phosphonates
  HO     OH     P      OH      3      0.00000   0.00000   0.00000   0.00000   0.00000   0.00000 ; phosphonates
  HO     OH     CO     OS      3    -10.17967   2.64847   7.55630  -0.02510   0.00000   0.00000 ; hexopyranoses
  N      C      C      O       3      0.00000   0.00000   0.00000   0.00000   0.00000   0.00000 ; dicarbonyls BMC 8,1881(2000)
  N      C      CT_2   N       3     10.36376  -6.60654 -10.49347   6.73624   0.00000   0.00000 ; Psi  peptides AA N-CA-C(O)-N
  N      C      CT_2   N3      3     10.36376  -6.60654 -10.49347   6.73624   0.00000   0.00000 ; Psi  peptides AA N-CA-C(O)-N
  N      C      CT_2   NT      3     10.36376  -6.60654 -10.49347   6.73624   0.00000   0.00000 ; Psi  peptides AA N-CA-C(O)-N
  N      CA     CT     NT      3     19.59994 -21.39070   4.05011  -2.25936   0.00000   0.00000 ; MDDR amine all-atom 
  N      CT     C      O       3      0.00000   0.00000   0.00000   0.00000   0.00000   0.00000 ; peptides
  N      CT_2   C      O_3     3      0.00000   0.00000   0.00000   0.00000   0.00000   0.00000 ; COOH terminus
  N      CT_2   C      OH      3     14.43480 -11.00392  -3.43088   0.00000   0.00000   0.00000 ; COOH terminus, guess from NT
  NT     CT_2   C      O_3     3      0.00000   0.00000   0.00000   0.00000   0.00000   0.00000 ; COOH terminus
  NT     CT_2   C      OH      3     14.43480 -11.00392  -3.43088   0.00000   0.00000   0.00000 ; COOH terminus, guess from NT
  N      CT     C_3    O2      3      3.43088   0.00000  -3.43088   0.00000   0.00000   0.00000 ; carboxylate ion   
  N      CT_2   C_3    O2      3      3.43088   0.00000  -3.43088   0.00000   0.00000   0.00000 ; carboxylate ion   
  N      CT_2   C      O       3      0.00000   0.00000   0.00000   0.00000   0.00000   0.00000 ; peptides  N-CA-C(O)-O
  N      CT_2   CT     S       3      3.40787  -2.80537  -0.35982  -0.24267   0.00000   0.00000 ; Chi for Cyx,  
  N      CT_2   CT     OH      3      9.89307  -4.71746   3.67774  -8.85335   0.00000   0.00000 ; Chi for Ser & Thr
  N      CT_2   CT     SH      3      3.40787  -2.80537  -0.35982  -0.24267   0.00000   0.00000 ; Chi for Cys
  N3     CT_2   C      O       3      0.00000   0.00000   0.00000   0.00000   0.00000   0.00000 ; peptides  X-CT_2-C(O)-O
  N3     CT_2   C_3    O2      3      0.00000   0.00000   0.00000   0.00000   0.00000   0.00000 ; Zwitterion AAs
  N3     CT_2   CT     S       3      3.40787  -2.80537  -0.35982  -0.24267   0.00000   0.00000 ; Chi for Cyx,  
  N3     CT_2   CT     OH      3      9.89307  -4.71746   3.67774  -8.85335   0.00000   0.00000 ; Chi for Ser & Thr
  N3     CT_2   CT     SH      3      3.40787  -2.80537  -0.35982  -0.24267   0.00000   0.00000 ; Chi for Cys
  N3     CT     CT     OH      3      9.89307  -4.71746   3.67774  -8.85335   0.00000   0.00000 ; 
  NT     CA     CT     NT      3     19.59994 -21.39070   4.05011  -2.25936   0.00000   0.00000 ; amine all-atom
  NT     CT     C      OH      3     14.43480 -11.00392  -3.43088   0.00000   0.00000   0.00000 ; RCOOH acid
  NT     CT     CT     NT      3     19.59994 -21.39070   4.05011  -2.25936   0.00000   0.00000 ; amine all-atom 
  NT     CT     CT     OH      3     16.73600 -16.73600   0.00000   0.00000   0.00000   0.00000 ; 2-aminoethanol 6-31G* fit - wj
  NT     CT_2   CT     OH      3     16.73600 -16.73600   0.00000   0.00000   0.00000   0.00000 ; H2N-terminus  
  NT     CT_2   C      O       3      0.00000   0.00000   0.00000   0.00000   0.00000   0.00000 ; H2N-terminus
  NT     CT_2   CT     S       3      3.40787  -2.80537  -0.35982  -0.24267   0.00000   0.00000 ; H2N-terminus
  NT     CT_2   CT     SH      3      3.40787  -2.80537  -0.35982  -0.24267   0.00000   0.00000 ; H2N-terminus
  O      C      C      O       3     16.73600  -3.34720 -13.38880   0.00000   0.00000   0.00000 ; dicarbonyls BMC 8,1881(2000)
  O      C      N      OH      3     27.62695   0.00000 -27.62695   0.00000   0.00000   0.00000 ; hydroxamic acids
  OH     CT     CT     OH      3     18.96607 -18.96607   0.00000   0.00000   0.00000   0.00000 ; hexopyranoses
  OH     CT     CT     OS      3      9.03534  -9.03534   0.00000   0.00000   0.00000   0.00000 ; hexopyranoses
  OS     CT     CT     OS      3     -1.15060   1.15060   0.00000   0.00000   0.00000   0.00000 ; polyethers, crown ethers
  CA     CA     N      X       3      8.78640   0.00000  -8.78640   0.00000   0.00000   0.00000 ; N-phenylamide
  CT     CT     CK     X       3      0.00000   0.00000   0.00000   0.00000   0.00000   0.00000 ; aromatics    
  CA     CA     CT     X       3      0.00000   0.00000   0.00000   0.00000   0.00000   0.00000 ; ethyl benzene
  NZ     CZ     CT     X       3      0.00000   0.00000   0.00000   0.00000   0.00000   0.00000 ; nitriles
  O      C      CT     X       3      0.00000   0.00000   0.00000   0.00000   0.00000   0.00000 ; peptides
  CT     CT     C*     X       3      0.00000   0.00000   0.00000   0.00000   0.00000   0.00000 ; aromatics    
  CT     CT     CQ     X       3      0.00000   0.00000   0.00000   0.00000   0.00000   0.00000 ; aromatics    
  CT     CT     CR     X       3      0.00000   0.00000   0.00000   0.00000   0.00000   0.00000 ; aromatics    
  CT     CT     CS     X       3      0.00000   0.00000   0.00000   0.00000   0.00000   0.00000 ; aromatics    
  CT     CT     CU     X       3      0.00000   0.00000   0.00000   0.00000   0.00000   0.00000 ; aromatics    
  CT     CT     CV     X       3      0.00000   0.00000   0.00000   0.00000   0.00000   0.00000 ; aromatics    
  OY     SY     N      X       3      0.00000   0.00000   0.00000   0.00000   0.00000   0.00000 ; sulfonamide
  OY     SY     C3     X       3      0.00000   0.00000   0.00000   0.00000   0.00000   0.00000 ; sulfonamide
  OY     SY     CA     X       3      0.00000   0.00000   0.00000   0.00000   0.00000   0.00000 ; sulfonamide
  OY     SY     OY     X       3      0.00000   0.00000   0.00000   0.00000   0.00000   0.00000 ; sulfonamide
  OY     SY     NT     X       3      0.00000   0.00000   0.00000   0.00000   0.00000   0.00000 ; sulfonamide
  OY     SY     CT     X       3      0.00000   0.00000   0.00000   0.00000   0.00000   0.00000 ; sulfonamide
  CT     CT     CW     X       3      0.00000   0.00000   0.00000   0.00000   0.00000   0.00000 ; aromatics    
  CZ     CZ     CT     X       3      0.00000   0.00000   0.00000   0.00000   0.00000   0.00000 ; alkynes
  Cl     CT     CS     X       3      0.00000   0.00000   0.00000   0.00000   0.00000   0.00000 ; chloromethyl aromatic
  Cl     CT     CW     X       3      0.00000   0.00000   0.00000   0.00000   0.00000   0.00000 ; chloromethyl aromatic
  F      CT     CS     X       3      0.00000   0.00000   0.00000   0.00000   0.00000   0.00000 ; fluoromethyl aromatic
  H      N      CT     X       3      0.00000   0.00000   0.00000   0.00000   0.00000   0.00000 ; peptides
  F      CT     CW     X       3      0.00000   0.00000   0.00000   0.00000   0.00000   0.00000 ; fluoromethyl aromatic
  H      N      CT_2   X       3      0.00000   0.00000   0.00000   0.00000   0.00000   0.00000 ; peptides  H-N-CA-X
  H      N2     CA     X       3      8.49352   0.00000  -8.49352   0.00000   0.00000   0.00000 ; aniline-like
  H3     NY     CA     X       3      8.49352   0.00000  -8.49352   0.00000   0.00000   0.00000 ; aniline-like (used for ARGN)
  H      N2     CQ     X       3      8.49352   0.00000  -8.49352   0.00000   0.00000   0.00000 ; aniline-like
  H      NA     CB     X       3     13.38880   0.00000 -13.38880   0.00000   0.00000   0.00000 ; 
  H      NA     CR     X       3     13.38880   0.00000 -13.38880   0.00000   0.00000   0.00000 ; 
  H      NA     CW     X       3     13.38880   0.00000 -13.38880   0.00000   0.00000   0.00000 ; 
  HA     CR     NA     X       3     41.84000   0.00000 -41.84000   0.00000   0.00000   0.00000 ; 
  HC     CT     C*     X       3      0.00000   0.00000   0.00000   0.00000   0.00000   0.00000 ; aromatics    
  HC     CT     CK     X       3      0.00000   0.00000   0.00000   0.00000   0.00000   0.00000 ; aromatics    
  HC     CT     CQ     X       3      0.00000   0.00000   0.00000   0.00000   0.00000   0.00000 ; aromatics    
  HC     CT     CR     X       3      0.00000   0.00000   0.00000   0.00000   0.00000   0.00000 ; aromatics    
  HC     CT     CS     X       3      0.00000   0.00000   0.00000   0.00000   0.00000   0.00000 ; aromatics    
  HC     CT     CU     X       3      0.00000   0.00000   0.00000   0.00000   0.00000   0.00000 ; aromatics    
  HC     CT     CV     X       3      0.00000   0.00000   0.00000   0.00000   0.00000   0.00000 ; aromatics    
  HC     CT     CW     X       3      0.00000   0.00000   0.00000   0.00000   0.00000   0.00000 ; aromatics    
  N      SY     CT     X       3      0.00000   0.00000   0.00000   0.00000   0.00000   0.00000 ; sulfonamide
  X      C      CB     X       3     29.28800   0.00000 -29.28800   0.00000   0.00000   0.00000 ; 
  X      C      CS     X       3     30.33400   0.00000 -30.33400   0.00000   0.00000   0.00000 ; 
  X      C*     CB     X       3     14.01640   0.00000 -14.01640   0.00000   0.00000   0.00000 ; 
  X      C*     CW     X       3     54.60120   0.00000 -54.60120   0.00000   0.00000   0.00000 ; 
  X      CA     S      X       3     30.33400   0.00000 -30.33400   0.00000   0.00000   0.00000 ; aromatic ring with S 
  X      CA     CA     X       3     30.33400   0.00000 -30.33400   0.00000   0.00000   0.00000 ; aromatic ring
  X      CA     CB     X       3     29.28800   0.00000 -29.28800   0.00000   0.00000   0.00000 ; 
  X      CA     CN     X       3     30.33400   0.00000 -30.33400   0.00000   0.00000   0.00000 ; 
  X      CA     CR     X       3     30.33400   0.00000 -30.33400   0.00000   0.00000   0.00000 ; aromatic ring
  X      CA     CS     X       3     30.33400   0.00000 -30.33400   0.00000   0.00000   0.00000 ; aromatic ring
  X      CA     CU     X       3     30.33400   0.00000 -30.33400   0.00000   0.00000   0.00000 ; aromatic ring
  X      CA     CW     X       3     30.33400   0.00000 -30.33400   0.00000   0.00000   0.00000 ; aromatic ring
  X      CA     NC     X       3     30.33400   0.00000 -30.33400   0.00000   0.00000   0.00000 ; aromatic ring
  X      CA     OS     X       3     30.33400   0.00000 -30.33400   0.00000   0.00000   0.00000 ; aromatic ring with O
  X      CB     N      X       3     30.33400   0.00000 -30.33400   0.00000   0.00000   0.00000 ; 
  X      CB     CB     X       3     30.33400   0.00000 -30.33400   0.00000   0.00000   0.00000 ; aromatic ring
  X      CB     CN     X       3     25.10400   0.00000 -25.10400   0.00000   0.00000   0.00000 ; 
  X      CB     CS     X       3     30.33400   0.00000 -30.33400   0.00000   0.00000   0.00000 ; aromatic ring
  X      CB     NA     X       3     30.33400   0.00000 -30.33400   0.00000   0.00000   0.00000 ; aromatic ring
  X      CB     NB     X       3     30.33400   0.00000 -30.33400   0.00000   0.00000   0.00000 ; aromatic ring
  X      CB     NC     X       3     30.33400   0.00000 -30.33400   0.00000   0.00000   0.00000 ; aromatic ring
  X      CK     NA     X       3     41.84000   0.00000 -41.84000   0.00000   0.00000   0.00000 ; 
  X      CK     NB     X       3     41.84000   0.00000 -41.84000   0.00000   0.00000   0.00000 ; 
  X      CK     NC     X       3     41.84000   0.00000 -41.84000   0.00000   0.00000   0.00000 ; 
  X      CM     CM     X       3     58.57600   0.00000 -58.57600   0.00000   0.00000   0.00000 ; alkene
  X      CN     NA     X       3     12.76120   0.00000 -12.76120   0.00000   0.00000   0.00000 ; 
  X      CQ     N      X       3     30.33400   0.00000 -30.33400   0.00000   0.00000   0.00000 ; 
  X      CQ     NC     X       3     30.33400   0.00000 -30.33400   0.00000   0.00000   0.00000 ; aromatic ring
  X      CR     S      X       3     30.33400   0.00000 -30.33400   0.00000   0.00000   0.00000 ; aromatic ring thiazole
  X      CR     CS     X       3     30.33400   0.00000 -30.33400   0.00000   0.00000   0.00000 ; 
  X      CR     NA     X       3     19.45560   0.00000 -19.45560   0.00000   0.00000   0.00000 ; 
  X      CR     NB     X       3     41.84000   0.00000 -41.84000   0.00000   0.00000   0.00000 ; 
  X      CR     NC     X       3     30.33400   0.00000 -30.33400   0.00000   0.00000   0.00000 ; 
  X      CR     OS     X       3     30.33400   0.00000 -30.33400   0.00000   0.00000   0.00000 ; aromatic ring oxazole
  X      CS     CS     X       3     30.33400   0.00000 -30.33400   0.00000   0.00000   0.00000 ; aromatic ring
  X      CS     CW     X       3     30.33400   0.00000 -30.33400   0.00000   0.00000   0.00000 ; aromatic ring
  X      CU     NB     X       3     30.33400   0.00000 -30.33400   0.00000   0.00000   0.00000 ; aromatic ring
  X      CV     CW     X       3     44.97800   0.00000 -44.97800   0.00000   0.00000   0.00000 ; 
  X      CV     NA     X       3     30.33400   0.00000 -30.33400   0.00000   0.00000   0.00000 ; aromatic ring
  X      CV     NB     X       3     20.08320   0.00000 -20.08320   0.00000   0.00000   0.00000 ; 
  X      CW     S      X       3     30.33400   0.00000 -30.33400   0.00000   0.00000   0.00000 ; aromatic ring thiazole
  X      CW     CW     X       3     44.97800   0.00000 -44.97800   0.00000   0.00000   0.00000 ; 
  X      CW     NA     X       3     11.71520   0.00000 -11.71520   0.00000   0.00000   0.00000 ; 
  X      CW     NB     X       3     41.84000   0.00000 -41.84000   0.00000   0.00000   0.00000 ; 
  X      CW     OS     X       3     30.33400   0.00000 -30.33400   0.00000   0.00000   0.00000 ; aromatic ring furan
  X      CY     S      X       3      0.00000   0.00000   0.00000   0.00000   0.00000   0.00000 ; small ring
  X      CY     CY     X       3      0.00000   0.00000   0.00000   0.00000   0.00000   0.00000 ; small ring
  X      CZ     CZ     X       3      0.00000   0.00000   0.00000   0.00000   0.00000   0.00000 ; alkynes
  X      NA     S      X       3     30.33400   0.00000 -30.33400   0.00000   0.00000   0.00000 ; aromatic ring with S
  X      NA     NB     X       3     41.84000   0.00000 -41.84000   0.00000   0.00000   0.00000 ; 
  X      NA     OS     X       3     30.33400   0.00000 -30.33400   0.00000   0.00000   0.00000 ; aromatic ring with O
  X      NB     OS     X       3     30.33400   0.00000 -30.33400   0.00000   0.00000   0.00000 ; aromatic ring isoxazole
  X      NC     NC     X       3     30.33400   0.00000 -30.33400   0.00000   0.00000   0.00000 ; aromatic ring
  X      OS     S      X       3     30.33400   0.00000 -30.33400   0.00000   0.00000   0.00000 ; aromatic ring with S
  X      CX     CX     X       3     44.97800   0.00000 -44.97800   0.00000   0.00000   0.00000 ; 
  CT     CT     CO     OH      3      2.87441   0.58158   2.09200  -5.54799   0.00000   0.00000 ; (From wildcard) alcohols, ethers AA
  CT     CT     CO     OS      3      2.87441   0.58158   2.09200  -5.54799   0.00000   0.00000 ; (From wildcard) alcohols, ethers AA
  HC     CM     CT     OH      3      0.97905   2.93716   0.00000  -3.91622   0.00000   0.00000 ; (From wildcard) alcohols, ethers AA
  HC     CM     CT     OS      3      0.97905   2.93716   0.00000  -3.91622   0.00000   0.00000 ; (From wildcard) alcohols, ethers AA
  CT     CM     CT     OH      3      2.87441   0.58158   2.09200  -5.54799   0.00000   0.00000 ; (From wildcard) alcohols, ethers AA
  CT     CM     CT     OS      3      2.87441   0.58158   2.09200  -5.54799   0.00000   0.00000 ; (From wildcard) alcohols, ethers AA
  CA     CA     CT     OH      3      0.00000   0.00000   0.00000   0.00000   0.00000   0.00000 ; (From wildcard) benzyl alcohols & ethers
  CA     CA     CT     OS      3      0.00000   0.00000   0.00000   0.00000   0.00000   0.00000 ; (From wildcard) benzyl alcohols & ethers
  CT     CT     NA     CB      3      0.00000   0.00000   0.00000   0.00000   0.00000   0.00000 ; (From wildcard) heterocycles
  CT     CT     NA     CW      3      0.00000   0.00000   0.00000   0.00000   0.00000   0.00000 ; (From wildcard) heterocycles
  CA     CT     NA     CB      3      0.00000   0.00000   0.00000   0.00000   0.00000   0.00000 ; (From wildcard) heterocycles
  CA     CT     NA     CK      3      0.00000   0.00000   0.00000   0.00000   0.00000   0.00000 ; (From wildcard) heterocycles
  CA     CT     NA     CR      3      0.00000   0.00000   0.00000   0.00000   0.00000   0.00000 ; (From wildcard) heterocycles
  CA     CT     NA     CW      3      0.00000   0.00000   0.00000   0.00000   0.00000   0.00000 ; (From wildcard) heterocycles
  CB     NA     CT     HC      3      0.00000   0.00000   0.00000   0.00000   0.00000   0.00000 ; (From wildcard) heterocycles
  CK     NA     CT     HC      3      0.00000   0.00000   0.00000   0.00000   0.00000   0.00000 ; (From wildcard) heterocycles
  CR     NA     CT     HC      3      0.00000   0.00000   0.00000   0.00000   0.00000   0.00000 ; (From wildcard) heterocycles
  CW     NA     CT     HC      3      0.00000   0.00000   0.00000   0.00000   0.00000   0.00000 ; (From wildcard) heterocycles
  CT     CT     N*     CM      3      0.00000   0.00000   0.00000   0.00000   0.00000   0.00000 ; (From wildcard) heterocycles
  CT     CT     N*     C       3      0.00000   0.00000   0.00000   0.00000   0.00000   0.00000 ; (From wildcard) heterocycles
  CT     CT     N*     C_2     3      0.00000   0.00000   0.00000   0.00000   0.00000   0.00000 ; (From wildcard) heterocycles
  CT     CT     N*     C_3     3      0.00000   0.00000   0.00000   0.00000   0.00000   0.00000 ; (From wildcard) heterocycles
  CT     CT     N*     CB      3      0.00000   0.00000   0.00000   0.00000   0.00000   0.00000 ; (From wildcard) heterocycles
  CM     N*     CT     HC      3      0.00000   0.00000   0.00000   0.00000   0.00000   0.00000 ; (From wildcard) heterocycles
  C      N*     CT     HC      3      0.00000   0.00000   0.00000   0.00000   0.00000   0.00000 ; (From wildcard) heterocycles
  C_2    N*     CT     HC      3      0.00000   0.00000   0.00000   0.00000   0.00000   0.00000 ; (From wildcard) heterocycles
  C_3    N*     CT     HC      3      0.00000   0.00000   0.00000   0.00000   0.00000   0.00000 ; (From wildcard) heterocycles
  CB     N*     CT     HC      3      0.00000   0.00000   0.00000   0.00000   0.00000   0.00000 ; (From wildcard) heterocycles
  CK     N*     CT     HC      3      0.00000   0.00000   0.00000   0.00000   0.00000   0.00000 ; (From wildcard) heterocycles
  CA     CA     CT     NT      3      0.00000   0.00000   0.00000   0.00000   0.00000   0.00000 ; (From wildcard) aromatics    
  CA     CA     CT     N       3      0.00000   0.00000   0.00000   0.00000   0.00000   0.00000 ; (From wildcard) aromatics    
  CA     CA     CT     NA      3      0.00000   0.00000   0.00000   0.00000   0.00000   0.00000 ; (From wildcard) aromatics    
  CA     OS     P      O2      3      1.17570   3.52711   0.00000  -4.70281   0.00000   0.00000 ; (From wildcard) MeOPO3 (2-) mll
  C3     OS     P      O2      3      1.17570   3.52711   0.00000  -4.70281   0.00000   0.00000 ; (From wildcard) MeOPO3 (2-) mll
  CT     OS     CT     N       3     -5.23000   7.32200   6.27600  -8.36800   0.00000   0.00000 ; (From wildcard) imidazoles, indoles, purines
  CT     OS     CT     N*      3     -5.23000   7.32200   6.27600  -8.36800   0.00000   0.00000 ; (From wildcard) imidazoles, indoles, purines
  H      N2     CA     N       3      8.49352   0.00000  -8.49352   0.00000   0.00000   0.00000 ; (From wildcard) aniline-like
  H      N2     CA     NA      3      8.49352   0.00000  -8.49352   0.00000   0.00000   0.00000 ; (From wildcard) aniline-like
  C      CT     CT     Cl      3     -4.96013   6.28646   1.30959  -2.63592   0.00000   0.00000 ; (From wildcard) butanamide
  C      CT     CT     CM      3     -4.96013   6.28646   1.30959  -2.63592   0.00000   0.00000 ; (From wildcard) butanamide
  C      CT     CT     CO      3     -4.96013   6.28646   1.30959  -2.63592   0.00000   0.00000 ; (From wildcard) butanamide
  C      CT     CT     C       3     -4.96013   6.28646   1.30959  -2.63592   0.00000   0.00000 ; (From wildcard) butanamide
  C      CT     CT     C_2     3     -4.96013   6.28646   1.30959  -2.63592   0.00000   0.00000 ; (From wildcard) butanamide
  C      CT     CT     CT_3    3     -4.96013   6.28646   1.30959  -2.63592   0.00000   0.00000 ; (From wildcard) butanamide
  C      CT     CT     CZ      3     -4.96013   6.28646   1.30959  -2.63592   0.00000   0.00000 ; (From wildcard) butanamide
  C      CT     CT     C_3     3     -4.96013   6.28646   1.30959  -2.63592   0.00000   0.00000 ; (From wildcard) butanamide
  C      CT     CT     CB      3     -4.96013   6.28646   1.30959  -2.63592   0.00000   0.00000 ; (From wildcard) butanamide
  C      CT     CT     CR      3     -4.96013   6.28646   1.30959  -2.63592   0.00000   0.00000 ; (From wildcard) butanamide
  C      CT     CT     CV      3     -4.96013   6.28646   1.30959  -2.63592   0.00000   0.00000 ; (From wildcard) butanamide
  C      CT     CT     CW      3     -4.96013   6.28646   1.30959  -2.63592   0.00000   0.00000 ; (From wildcard) butanamide
  C      CT     CT     CX      3     -4.96013   6.28646   1.30959  -2.63592   0.00000   0.00000 ; (From wildcard) butanamide
  C      CT     CT     CS      3     -4.96013   6.28646   1.30959  -2.63592   0.00000   0.00000 ; (From wildcard) butanamide
  C      CT     CT     C+      3     -4.96013   6.28646   1.30959  -2.63592   0.00000   0.00000 ; (From wildcard) butanamide
  C=     CM     CT     OH      3      1.04600  -1.04600   0.00000   0.00000   0.00000   0.00000 ; (From wildcard) allyl alcohols, ethers
  C=     CM     CT     OS      3      1.04600  -1.04600   0.00000   0.00000   0.00000   0.00000 ; (From wildcard) allyl alcohols, ethers
  CA     CT     S      S       3      2.51876   1.80749   3.49782  -7.82408   0.00000   0.00000 ; (From wildcard) disulfide all-atom
  CT_2   CT     S      S       3      2.51876   1.80749   3.49782  -7.82408   0.00000   0.00000 ; (From wildcard) disulfide all-atom
  CW     CT     S      S       3      2.51876   1.80749   3.49782  -7.82408   0.00000   0.00000 ; (From wildcard) disulfide all-atom
  Cl     CT     CT     S       3      3.42461  -3.85974   2.59408  -2.15895   0.00000   0.00000 ; (From wildcard) sulfide all-atom
  CM     CT     CT     S       3      3.42461  -3.85974   2.59408  -2.15895   0.00000   0.00000 ; (From wildcard) sulfide all-atom
  CO     CT     CT     S       3      3.42461  -3.85974   2.59408  -2.15895   0.00000   0.00000 ; (From wildcard) sulfide all-atom
  C      CT     CT     S       3      3.42461  -3.85974   2.59408  -2.15895   0.00000   0.00000 ; (From wildcard) sulfide all-atom
  C_2    CT     CT     S       3      3.42461  -3.85974   2.59408  -2.15895   0.00000   0.00000 ; (From wildcard) sulfide all-atom
  CT_3   CT     CT     S       3      3.42461  -3.85974   2.59408  -2.15895   0.00000   0.00000 ; (From wildcard) sulfide all-atom
  CZ     CT     CT     S       3      3.42461  -3.85974   2.59408  -2.15895   0.00000   0.00000 ; (From wildcard) sulfide all-atom
  C_3    CT     CT     S       3      3.42461  -3.85974   2.59408  -2.15895   0.00000   0.00000 ; (From wildcard) sulfide all-atom
  CB     CT     CT     S       3      3.42461  -3.85974   2.59408  -2.15895   0.00000   0.00000 ; (From wildcard) sulfide all-atom
  C*     CT     CT     S       3      3.42461  -3.85974   2.59408  -2.15895   0.00000   0.00000 ; (From wildcard) sulfide all-atom
  CR     CT     CT     S       3      3.42461  -3.85974   2.59408  -2.15895   0.00000   0.00000 ; (From wildcard) sulfide all-atom
  CV     CT     CT     S       3      3.42461  -3.85974   2.59408  -2.15895   0.00000   0.00000 ; (From wildcard) sulfide all-atom
  CW     CT     CT     S       3      3.42461  -3.85974   2.59408  -2.15895   0.00000   0.00000 ; (From wildcard) sulfide all-atom
  CX     CT     CT     S       3      3.42461  -3.85974   2.59408  -2.15895   0.00000   0.00000 ; (From wildcard) sulfide all-atom
  CS     CT     CT     S       3      3.42461  -3.85974   2.59408  -2.15895   0.00000   0.00000 ; (From wildcard) sulfide all-atom
  C+     CT     CT     S       3      3.42461  -3.85974   2.59408  -2.15895   0.00000   0.00000 ; (From wildcard) sulfide all-atom
  Cl     CT     CT     CU      3     -4.96013   6.28646   1.30959  -2.63592   0.00000   0.00000 ; (From wildcard) butanamide
  CM     CT     CT     CU      3     -4.96013   6.28646   1.30959  -2.63592   0.00000   0.00000 ; (From wildcard) butanamide
  CA     CT     CT     CU      3     -4.96013   6.28646   1.30959  -2.63592   0.00000   0.00000 ; (From wildcard) butanamide
  CO     CT     CT     CU      3     -4.96013   6.28646   1.30959  -2.63592   0.00000   0.00000 ; (From wildcard) butanamide
  CT_2   CT     CT     CU      3     -4.96013   6.28646   1.30959  -2.63592   0.00000   0.00000 ; (From wildcard) butanamide
  C      CT     CT     CU      3     -4.96013   6.28646   1.30959  -2.63592   0.00000   0.00000 ; (From wildcard) butanamide
  C_2    CT     CT     CU      3     -4.96013   6.28646   1.30959  -2.63592   0.00000   0.00000 ; (From wildcard) butanamide
  CT_3   CT     CT     CU      3     -4.96013   6.28646   1.30959  -2.63592   0.00000   0.00000 ; (From wildcard) butanamide
  CZ     CT     CT     CU      3     -4.96013   6.28646   1.30959  -2.63592   0.00000   0.00000 ; (From wildcard) butanamide
  C_3    CT     CT     CU      3     -4.96013   6.28646   1.30959  -2.63592   0.00000   0.00000 ; (From wildcard) butanamide
  CB     CT     CT     CU      3     -4.96013   6.28646   1.30959  -2.63592   0.00000   0.00000 ; (From wildcard) butanamide
  C*     CT     CT     CU      3     -4.96013   6.28646   1.30959  -2.63592   0.00000   0.00000 ; (From wildcard) butanamide
  CR     CT     CT     CU      3     -4.96013   6.28646   1.30959  -2.63592   0.00000   0.00000 ; (From wildcard) butanamide
  CV     CT     CT     CU      3     -4.96013   6.28646   1.30959  -2.63592   0.00000   0.00000 ; (From wildcard) butanamide
  CW     CT     CT     CU      3     -4.96013   6.28646   1.30959  -2.63592   0.00000   0.00000 ; (From wildcard) butanamide
  CX     CT     CT     CU      3     -4.96013   6.28646   1.30959  -2.63592   0.00000   0.00000 ; (From wildcard) butanamide
  CS     CT     CT     CU      3     -4.96013   6.28646   1.30959  -2.63592   0.00000   0.00000 ; (From wildcard) butanamide
  C+     CT     CT     CU      3     -4.96013   6.28646   1.30959  -2.63592   0.00000   0.00000 ; (From wildcard) butanamide
  Cl     CT     CT     N2      3      5.77183  -2.67148   0.95814  -4.05848   0.00000   0.00000 ; (From wildcard) 
  CM     CT     CT     N2      3      5.77183  -2.67148   0.95814  -4.05848   0.00000   0.00000 ; (From wildcard) 
  CA     CT     CT     N2      3      5.77183  -2.67148   0.95814  -4.05848   0.00000   0.00000 ; (From wildcard) 
  CO     CT     CT     N2      3      5.77183  -2.67148   0.95814  -4.05848   0.00000   0.00000 ; (From wildcard) 
  CT_2   CT     CT     N2      3      5.77183  -2.67148   0.95814  -4.05848   0.00000   0.00000 ; (From wildcard) 
  C      CT     CT     N2      3      5.77183  -2.67148   0.95814  -4.05848   0.00000   0.00000 ; (From wildcard) 
  C_2    CT     CT     N2      3      5.77183  -2.67148   0.95814  -4.05848   0.00000   0.00000 ; (From wildcard) 
  CT_3   CT     CT     N2      3      5.77183  -2.67148   0.95814  -4.05848   0.00000   0.00000 ; (From wildcard) 
  CZ     CT     CT     N2      3      5.77183  -2.67148   0.95814  -4.05848   0.00000   0.00000 ; (From wildcard) 
  C_3    CT     CT     N2      3      5.77183  -2.67148   0.95814  -4.05848   0.00000   0.00000 ; (From wildcard) 
  CB     CT     CT     N2      3      5.77183  -2.67148   0.95814  -4.05848   0.00000   0.00000 ; (From wildcard) 
  C*     CT     CT     N2      3      5.77183  -2.67148   0.95814  -4.05848   0.00000   0.00000 ; (From wildcard) 
  CR     CT     CT     N2      3      5.77183  -2.67148   0.95814  -4.05848   0.00000   0.00000 ; (From wildcard) 
  CV     CT     CT     N2      3      5.77183  -2.67148   0.95814  -4.05848   0.00000   0.00000 ; (From wildcard) 
  CW     CT     CT     N2      3      5.77183  -2.67148   0.95814  -4.05848   0.00000   0.00000 ; (From wildcard) 
  CX     CT     CT     N2      3      5.77183  -2.67148   0.95814  -4.05848   0.00000   0.00000 ; (From wildcard) 
  CS     CT     CT     N2      3      5.77183  -2.67148   0.95814  -4.05848   0.00000   0.00000 ; (From wildcard) 
  C+     CT     CT     N2      3      5.77183  -2.67148   0.95814  -4.05848   0.00000   0.00000 ; (From wildcard) 
  CM     CT     CT     NT      3      3.33465  -1.55226   2.82001  -4.60240   0.00000   0.00000 ; (From wildcard) amine all-atom
  CT_2   CT     CT     NT      3      3.33465  -1.55226   2.82001  -4.60240   0.00000   0.00000 ; (From wildcard) amine all-atom
  C      CT     CT     NT      3      3.33465  -1.55226   2.82001  -4.60240   0.00000   0.00000 ; (From wildcard) amine all-atom
  C      CT     CT_2   NT      3      3.33465  -1.55226   2.82001  -4.60240   0.00000   0.00000 ; H2N-terminus
  C_2    CT     CT     NT      3      3.33465  -1.55226   2.82001  -4.60240   0.00000   0.00000 ; (From wildcard) amine all-atom
  CT_3   CT     CT     NT      3      3.33465  -1.55226   2.82001  -4.60240   0.00000   0.00000 ; (From wildcard) amine all-atom
  CZ     CT     CT     NT      3      3.33465  -1.55226   2.82001  -4.60240   0.00000   0.00000 ; (From wildcard) amine all-atom
  C_3    CT     CT     NT      3      3.33465  -1.55226   2.82001  -4.60240   0.00000   0.00000 ; (From wildcard) amine all-atom
  C_3    CT     CT_2   NT      3      3.33465  -1.55226   2.82001  -4.60240   0.00000   0.00000 ; H2N-terminus
  CB     CT     CT     NT      3      3.33465  -1.55226   2.82001  -4.60240   0.00000   0.00000 ; (From wildcard) amine all-atom
  C*     CT     CT     NT      3      3.33465  -1.55226   2.82001  -4.60240   0.00000   0.00000 ; (From wildcard) amine all-atom
  C*     CT     CT_2   NT      3      3.33465  -1.55226   2.82001  -4.60240   0.00000   0.00000 ; H2N-terminus
  CR     CT     CT     NT      3      3.33465  -1.55226   2.82001  -4.60240   0.00000   0.00000 ; (From wildcard) amine all-atom
  CV     CT     CT     NT      3      3.33465  -1.55226   2.82001  -4.60240   0.00000   0.00000 ; (From wildcard) amine all-atom
  CW     CT     CT     NT      3      3.33465  -1.55226   2.82001  -4.60240   0.00000   0.00000 ; (From wildcard) amine all-atom
  CX     CT     CT     NT      3      3.33465  -1.55226   2.82001  -4.60240   0.00000   0.00000 ; (From wildcard) amine all-atom
  CV     CT     CT_2   NT      3      3.33465  -1.55226   2.82001  -4.60240   0.00000   0.00000 ; H2N-terminus
  CW     CT     CT_2   NT      3      3.33465  -1.55226   2.82001  -4.60240   0.00000   0.00000 ; H2N-terminus
  CX     CT     CT_2   NT      3      3.33465  -1.55226   2.82001  -4.60240   0.00000   0.00000 ; H2N-terminus
  CS     CT     CT     NT      3      3.33465  -1.55226   2.82001  -4.60240   0.00000   0.00000 ; (From wildcard) amine all-atom
  C+     CT     CT     NT      3      3.33465  -1.55226   2.82001  -4.60240   0.00000   0.00000 ; (From wildcard) amine all-atom
  Cl     CT     CT     OH      3      2.87441   0.58158   2.09200  -5.54799   0.00000   0.00000 ; (From wildcard) alcohols, ethers AA
  CM     CT     CT     OH      3      2.87441   0.58158   2.09200  -5.54799   0.00000   0.00000 ; (From wildcard) alcohols, ethers AA
  CO     CT     CT     OH      3      2.87441   0.58158   2.09200  -5.54799   0.00000   0.00000 ; (From wildcard) alcohols, ethers AA
  CT_2   CT     CT     OH      3      2.87441   0.58158   2.09200  -5.54799   0.00000   0.00000 ; (From wildcard) alcohols, ethers AA
  C      CT     CT     OH      3      2.87441   0.58158   2.09200  -5.54799   0.00000   0.00000 ; (From wildcard) alcohols, ethers AA
  C_2    CT     CT     OH      3      2.87441   0.58158   2.09200  -5.54799   0.00000   0.00000 ; (From wildcard) alcohols, ethers AA
  CT_3   CT     CT     OH      3      2.87441   0.58158   2.09200  -5.54799   0.00000   0.00000 ; (From wildcard) alcohols, ethers AA
  CZ     CT     CT     OH      3      2.87441   0.58158   2.09200  -5.54799   0.00000   0.00000 ; (From wildcard) alcohols, ethers AA
  C_3    CT     CT     OH      3      2.87441   0.58158   2.09200  -5.54799   0.00000   0.00000 ; (From wildcard) alcohols, ethers AA
  CB     CT     CT     OH      3      2.87441   0.58158   2.09200  -5.54799   0.00000   0.00000 ; (From wildcard) alcohols, ethers AA
  C*     CT     CT     OH      3      2.87441   0.58158   2.09200  -5.54799   0.00000   0.00000 ; (From wildcard) alcohols, ethers AA
  CR     CT     CT     OH      3      2.87441   0.58158   2.09200  -5.54799   0.00000   0.00000 ; (From wildcard) alcohols, ethers AA
  CV     CT     CT     OH      3      2.87441   0.58158   2.09200  -5.54799   0.00000   0.00000 ; (From wildcard) alcohols, ethers AA
  CW     CT     CT     OH      3      2.87441   0.58158   2.09200  -5.54799   0.00000   0.00000 ; (From wildcard) alcohols, ethers AA
  CX     CT     CT     OH      3      2.87441   0.58158   2.09200  -5.54799   0.00000   0.00000 ; (From wildcard) alcohols, ethers AA
  CS     CT     CT     OH      3      2.87441   0.58158   2.09200  -5.54799   0.00000   0.00000 ; (From wildcard) alcohols, ethers AA
  C+     CT     CT     OH      3      2.87441   0.58158   2.09200  -5.54799   0.00000   0.00000 ; (From wildcard) alcohols, ethers AA
  Cl     CT     CT     OS      3      2.87441   0.58158   2.09200  -5.54799   0.00000   0.00000 ; (From wildcard) alcohols, ethers AA
  CM     CT     CT     OS      3      2.87441   0.58158   2.09200  -5.54799   0.00000   0.00000 ; (From wildcard) alcohols, ethers AA
  CO     CT     CT     OS      3      2.87441   0.58158   2.09200  -5.54799   0.00000   0.00000 ; (From wildcard) alcohols, ethers AA
  CT_2   CT     CT     OS      3      2.87441   0.58158   2.09200  -5.54799   0.00000   0.00000 ; (From wildcard) alcohols, ethers AA
  C      CT     CT     OS      3      2.87441   0.58158   2.09200  -5.54799   0.00000   0.00000 ; (From wildcard) alcohols, ethers AA
  C_2    CT     CT     OS      3      2.87441   0.58158   2.09200  -5.54799   0.00000   0.00000 ; (From wildcard) alcohols, ethers AA
  CT_3   CT     CT     OS      3      2.87441   0.58158   2.09200  -5.54799   0.00000   0.00000 ; (From wildcard) alcohols, ethers AA
  CZ     CT     CT     OS      3      2.87441   0.58158   2.09200  -5.54799   0.00000   0.00000 ; (From wildcard) alcohols, ethers AA
  C_3    CT     CT     OS      3      2.87441   0.58158   2.09200  -5.54799   0.00000   0.00000 ; (From wildcard) alcohols, ethers AA
  CB     CT     CT     OS      3      2.87441   0.58158   2.09200  -5.54799   0.00000   0.00000 ; (From wildcard) alcohols, ethers AA
  C*     CT     CT     OS      3      2.87441   0.58158   2.09200  -5.54799   0.00000   0.00000 ; (From wildcard) alcohols, ethers AA
  CR     CT     CT     OS      3      2.87441   0.58158   2.09200  -5.54799   0.00000   0.00000 ; (From wildcard) alcohols, ethers AA
  CV     CT     CT     OS      3      2.87441   0.58158   2.09200  -5.54799   0.00000   0.00000 ; (From wildcard) alcohols, ethers AA
  CW     CT     CT     OS      3      2.87441   0.58158   2.09200  -5.54799   0.00000   0.00000 ; (From wildcard) alcohols, ethers AA
  CX     CT     CT     OS      3      2.87441   0.58158   2.09200  -5.54799   0.00000   0.00000 ; (From wildcard) alcohols, ethers AA
  CS     CT     CT     OS      3      2.87441   0.58158   2.09200  -5.54799   0.00000   0.00000 ; (From wildcard) alcohols, ethers AA
  C+     CT     CT     OS      3      2.87441   0.58158   2.09200  -5.54799   0.00000   0.00000 ; (From wildcard) alcohols, ethers AA
  Cl     CT     CT     SH      3      3.92459  -3.92459   0.00000   0.00000   0.00000   0.00000 ; (From wildcard) thiol all-atom
  CM     CT     CT     SH      3      3.92459  -3.92459   0.00000   0.00000   0.00000   0.00000 ; (From wildcard) thiol all-atom
  CA     CT     CT     SH      3      3.92459  -3.92459   0.00000   0.00000   0.00000   0.00000 ; (From wildcard) thiol all-atom
  CO     CT     CT     SH      3      3.92459  -3.92459   0.00000   0.00000   0.00000   0.00000 ; (From wildcard) thiol all-atom
  CT_2   CT     CT     SH      3      3.92459  -3.92459   0.00000   0.00000   0.00000   0.00000 ; (From wildcard) thiol all-atom
  C      CT     CT     SH      3      3.92459  -3.92459   0.00000   0.00000   0.00000   0.00000 ; (From wildcard) thiol all-atom
  C_2    CT     CT     SH      3      3.92459  -3.92459   0.00000   0.00000   0.00000   0.00000 ; (From wildcard) thiol all-atom
  CT_3   CT     CT     SH      3      3.92459  -3.92459   0.00000   0.00000   0.00000   0.00000 ; (From wildcard) thiol all-atom
  CZ     CT     CT     SH      3      3.92459  -3.92459   0.00000   0.00000   0.00000   0.00000 ; (From wildcard) thiol all-atom
  C_3    CT     CT     SH      3      3.92459  -3.92459   0.00000   0.00000   0.00000   0.00000 ; (From wildcard) thiol all-atom
  CB     CT     CT     SH      3      3.92459  -3.92459   0.00000   0.00000   0.00000   0.00000 ; (From wildcard) thiol all-atom
  C*     CT     CT     SH      3      3.92459  -3.92459   0.00000   0.00000   0.00000   0.00000 ; (From wildcard) thiol all-atom
  CR     CT     CT     SH      3      3.92459  -3.92459   0.00000   0.00000   0.00000   0.00000 ; (From wildcard) thiol all-atom
  CV     CT     CT     SH      3      3.92459  -3.92459   0.00000   0.00000   0.00000   0.00000 ; (From wildcard) thiol all-atom
  CW     CT     CT     SH      3      3.92459  -3.92459   0.00000   0.00000   0.00000   0.00000 ; (From wildcard) thiol all-atom
  CX     CT     CT     SH      3      3.92459  -3.92459   0.00000   0.00000   0.00000   0.00000 ; (From wildcard) thiol all-atom
  CS     CT     CT     SH      3      3.92459  -3.92459   0.00000   0.00000   0.00000   0.00000 ; (From wildcard) thiol all-atom
  C+     CT     CT     SH      3      3.92459  -3.92459   0.00000   0.00000   0.00000   0.00000 ; (From wildcard) thiol all-atom
  Cl     CT     CT     C_3     3     -9.08346   9.75709   3.45180  -4.12542   0.00000   0.00000 ; (From wildcard) carboxylate ion
  CM     CT     CT     C_3     3     -9.08346   9.75709   3.45180  -4.12542   0.00000   0.00000 ; (From wildcard) carboxylate ion
  CA     CT     CT     C_3     3     -9.08346   9.75709   3.45180  -4.12542   0.00000   0.00000 ; (From wildcard) carboxylate ion
  CO     CT     CT     C_3     3     -9.08346   9.75709   3.45180  -4.12542   0.00000   0.00000 ; (From wildcard) carboxylate ion
  CT_2   CT     CT     C_3     3     -9.08346   9.75709   3.45180  -4.12542   0.00000   0.00000 ; (From wildcard) carboxylate ion
  C_2    CT     CT     C_3     3     -9.08346   9.75709   3.45180  -4.12542   0.00000   0.00000 ; (From wildcard) carboxylate ion
  CT_3   CT     CT     C_3     3     -9.08346   9.75709   3.45180  -4.12542   0.00000   0.00000 ; (From wildcard) carboxylate ion
  CZ     CT     CT     C_3     3     -9.08346   9.75709   3.45180  -4.12542   0.00000   0.00000 ; (From wildcard) carboxylate ion
  C_3    CT     CT     C_3     3     -9.08346   9.75709   3.45180  -4.12542   0.00000   0.00000 ; (From wildcard) carboxylate ion
  CB     CT     CT     C_3     3     -9.08346   9.75709   3.45180  -4.12542   0.00000   0.00000 ; (From wildcard) carboxylate ion
  C*     CT     CT     C_3     3     -9.08346   9.75709   3.45180  -4.12542   0.00000   0.00000 ; (From wildcard) carboxylate ion
  CR     CT     CT     C_3     3     -9.08346   9.75709   3.45180  -4.12542   0.00000   0.00000 ; (From wildcard) carboxylate ion
  CV     CT     CT     C_3     3     -9.08346   9.75709   3.45180  -4.12542   0.00000   0.00000 ; (From wildcard) carboxylate ion
  CW     CT     CT     C_3     3     -9.08346   9.75709   3.45180  -4.12542   0.00000   0.00000 ; (From wildcard) carboxylate ion
  CX     CT     CT     C_3     3     -9.08346   9.75709   3.45180  -4.12542   0.00000   0.00000 ; (From wildcard) carboxylate ion
  CS     CT     CT     C_3     3     -9.08346   9.75709   3.45180  -4.12542   0.00000   0.00000 ; (From wildcard) carboxylate ion
  C+     CT     CT     C_3     3     -9.08346   9.75709   3.45180  -4.12542   0.00000   0.00000 ; (From wildcard) carboxylate ion
  CA     CT     CT_2   C_3     3     -9.08346   9.75709   3.45180  -4.12542   0.00000   0.00000 ; (From wildcard) carboxylate ion
  C      CT     CT_2   C_3     3     -9.08346   9.75709   3.45180  -4.12542   0.00000   0.00000 ; (From wildcard) carboxylate ion
  C_2    CT     CT_2   C_3     3     -9.08346   9.75709   3.45180  -4.12542   0.00000   0.00000 ; (From wildcard) carboxylate ion
  C_3    CT     CT_2   C_3     3     -9.08346   9.75709   3.45180  -4.12542   0.00000   0.00000 ; (From wildcard) carboxylate ion
  C*     CT     CT_2   C_3     3     -9.08346   9.75709   3.45180  -4.12542   0.00000   0.00000 ; (From wildcard) carboxylate ion
  CV     CT     CT_2   C_3     3     -9.08346   9.75709   3.45180  -4.12542   0.00000   0.00000 ; (From wildcard) carboxylate ion
  CW     CT     CT_2   C_3     3     -9.08346   9.75709   3.45180  -4.12542   0.00000   0.00000 ; (From wildcard) carboxylate ion
  CX     CT     CT_2   C_3     3     -9.08346   9.75709   3.45180  -4.12542   0.00000   0.00000 ; (From wildcard) carboxylate ion
  Cl     CT     CT     N3      3      5.77183  -2.67148   0.95814  -4.05848   0.00000   0.00000 ; (From wildcard) ammonium ion all-atom
  CM     CT     CT     N3      3      5.77183  -2.67148   0.95814  -4.05848   0.00000   0.00000 ; (From wildcard) ammonium ion all-atom
  CO     CT     CT     N3      3      5.77183  -2.67148   0.95814  -4.05848   0.00000   0.00000 ; (From wildcard) ammonium ion all-atom
  CT_2   CT     CT     N3      3      5.77183  -2.67148   0.95814  -4.05848   0.00000   0.00000 ; (From wildcard) ammonium ion all-atom
  C      CT     CT     N3      3      5.77183  -2.67148   0.95814  -4.05848   0.00000   0.00000 ; (From wildcard) ammonium ion all-atom
  C_2    CT     CT     N3      3      5.77183  -2.67148   0.95814  -4.05848   0.00000   0.00000 ; (From wildcard) ammonium ion all-atom
  CT_3   CT     CT     N3      3      5.77183  -2.67148   0.95814  -4.05848   0.00000   0.00000 ; (From wildcard) ammonium ion all-atom
  CZ     CT     CT     N3      3      5.77183  -2.67148   0.95814  -4.05848   0.00000   0.00000 ; (From wildcard) ammonium ion all-atom
  C_3    CT     CT     N3      3      5.77183  -2.67148   0.95814  -4.05848   0.00000   0.00000 ; (From wildcard) ammonium ion all-atom
  CB     CT     CT     N3      3      5.77183  -2.67148   0.95814  -4.05848   0.00000   0.00000 ; (From wildcard) ammonium ion all-atom
  C*     CT     CT     N3      3      5.77183  -2.67148   0.95814  -4.05848   0.00000   0.00000 ; (From wildcard) ammonium ion all-atom
  CR     CT     CT     N3      3      5.77183  -2.67148   0.95814  -4.05848   0.00000   0.00000 ; (From wildcard) ammonium ion all-atom
  CV     CT     CT     N3      3      5.77183  -2.67148   0.95814  -4.05848   0.00000   0.00000 ; (From wildcard) ammonium ion all-atom
  CW     CT     CT     N3      3      5.77183  -2.67148   0.95814  -4.05848   0.00000   0.00000 ; (From wildcard) ammonium ion all-atom
  CX     CT     CT     N3      3      5.77183  -2.67148   0.95814  -4.05848   0.00000   0.00000 ; (From wildcard) ammonium ion all-atom
  CS     CT     CT     N3      3      5.77183  -2.67148   0.95814  -4.05848   0.00000   0.00000 ; (From wildcard) ammonium ion all-atom
  C+     CT     CT     N3      3      5.77183  -2.67148   0.95814  -4.05848   0.00000   0.00000 ; (From wildcard) ammonium ion all-atom
  C      CT     NT     CT      3      1.78866   3.49154   0.53555  -5.81576   0.00000   0.00000 ; (From wildcard) amine all-atom
  C_2    CT     NT     CT      3      1.78866   3.49154   0.53555  -5.81576   0.00000   0.00000 ; (From wildcard) amine all-atom
  C_3    CT     NT     CT      3      1.78866   3.49154   0.53555  -5.81576   0.00000   0.00000 ; (From wildcard) amine all-atom
  C3     CT     NT     CT      3      1.78866   3.49154   0.53555  -5.81576   0.00000   0.00000 ; (From wildcard) amine all-atom
  CM     CT     OS     CT      3      1.71544   2.84512   1.04600  -5.60656   0.00000   0.00000 ; (From wildcard) ethers AA
  C      CT     OS     CT      3      1.71544   2.84512   1.04600  -5.60656   0.00000   0.00000 ; (From wildcard) ethers AA
  C_2    CT     OS     CT      3      1.71544   2.84512   1.04600  -5.60656   0.00000   0.00000 ; (From wildcard) ethers AA
  C_3    CT     OS     CT      3      1.71544   2.84512   1.04600  -5.60656   0.00000   0.00000 ; (From wildcard) ethers AA
  C      CT     CT_2   N       3     -0.76567   2.70705   4.02501  -5.96639   0.00000   0.00000 ; (From wildcard) Chi-1 peptides AA
  C_2    CT     CT_2   N       3     -0.76567   2.70705   4.02501  -5.96639   0.00000   0.00000 ; (From wildcard) Chi-1 peptides AA
  C_3    CT     CT_2   N       3     -0.76567   2.70705   4.02501  -5.96639   0.00000   0.00000 ; (From wildcard) Chi-1 peptides AA
  C      CT     CT_2   N3      3     -0.76567   2.70705   4.02501  -5.96639   0.00000   0.00000 ; (From wildcard) Chi-1 peptides AA
  C_2    CT     CT_2   N3      3     -0.76567   2.70705   4.02501  -5.96639   0.00000   0.00000 ; (From wildcard) Chi-1 peptides AA
  C_3    CT     CT_2   N3      3     -0.76567   2.70705   4.02501  -5.96639   0.00000   0.00000 ; (From wildcard) Chi-1 peptides AA
  CM     N*     CT     OS      3     -3.13800  -3.13800   6.27600   0.00000   0.00000   0.00000 ; (From wildcard) imidazoles, indoles, purines
  C      N*     CT     OS      3     -3.13800  -3.13800   6.27600   0.00000   0.00000   0.00000 ; (From wildcard) imidazoles, indoles, purines
  C_2    N*     CT     OS      3     -3.13800  -3.13800   6.27600   0.00000   0.00000   0.00000 ; (From wildcard) imidazoles, indoles, purines
  C_3    N*     CT     OS      3     -3.13800  -3.13800   6.27600   0.00000   0.00000   0.00000 ; (From wildcard) imidazoles, indoles, purines
  CB     N*     CT     OS      3     -3.13800  -3.13800   6.27600   0.00000   0.00000   0.00000 ; (From wildcard) imidazoles, indoles, purines
  CB     NA     CT     OS      3     -3.13800  -3.13800   6.27600   0.00000   0.00000   0.00000 ; (From wildcard) imidazoles, indoles, purines
  CW     NA     CT     OS      3     -3.13800  -3.13800   6.27600   0.00000   0.00000   0.00000 ; (From wildcard) imidazoles, indoles, purines
  Cl     CT_2   C      N       3      5.00825  -1.69870  -0.37238  -2.93716   0.00000   0.00000 ; (From wildcard) Psi prime peptides AA
  CM     CM     CT     OH      3      1.04600  -1.04600   0.00000   0.00000   0.00000   0.00000 ; (From wildcard) allyl alcohols, ethers
  CM     CM     CT     OS      3      1.04600  -1.04600   0.00000   0.00000   0.00000   0.00000 ; (From wildcard) allyl alcohols, ethers
  CT     C=     C      OH      3      1.78866  -5.05218  -0.96232   4.22584   0.00000   0.00000 ; (From wildcard) 2-Me-1,3-butadiene-like
  CT     C=     C      O       3      1.78866  -5.05218  -0.96232   4.22584   0.00000   0.00000 ; (From wildcard) 2-Me-1,3-butadiene-like
  CT     C=     C      O_3     3      1.78866  -5.05218  -0.96232   4.22584   0.00000   0.00000 ; (From wildcard) 2-Me-1,3-butadiene-like
  CT     C=     C      O_2     3      1.78866  -5.05218  -0.96232   4.22584   0.00000   0.00000 ; (From wildcard) 2-Me-1,3-butadiene-like
  CT     CM     C      OH      3      1.78866  -5.05218  -0.96232   4.22584   0.00000   0.00000 ; (From wildcard) 2-Me-1,3-butadiene-like
  CT     CM     C      O       3      1.78866  -5.05218  -0.96232   4.22584   0.00000   0.00000 ; (From wildcard) 2-Me-1,3-butadiene-like
  CT     CM     C      O_3     3      1.78866  -5.05218  -0.96232   4.22584   0.00000   0.00000 ; (From wildcard) 2-Me-1,3-butadiene-like
  CT     CM     C      O_2     3      1.78866  -5.05218  -0.96232   4.22584   0.00000   0.00000 ; (From wildcard) 2-Me-1,3-butadiene-like
  HA     CW     NA     NB      3     13.38880   0.00000 -13.38880   0.00000   0.00000   0.00000 ; (From wildcard) 
  H4     CW     NA     NB      3     13.38880   0.00000 -13.38880   0.00000   0.00000   0.00000 ; (From wildcard) 
  CT     CW     NA     CT      3     13.38880   0.00000 -13.38880   0.00000   0.00000   0.00000 ; (From wildcard) 
  CT     CW     NA     CN      3     13.38880   0.00000 -13.38880   0.00000   0.00000   0.00000 ; (From wildcard) 
  CT     CW     NA     CR      3     13.38880   0.00000 -13.38880   0.00000   0.00000   0.00000 ; (From wildcard) 
  CT     CW     NA     CW      3     13.38880   0.00000 -13.38880   0.00000   0.00000   0.00000 ; (From wildcard) 
  CA     CW     NA     CT      3     13.38880   0.00000 -13.38880   0.00000   0.00000   0.00000 ; (From wildcard) 
  CA     CW     NA     CN      3     13.38880   0.00000 -13.38880   0.00000   0.00000   0.00000 ; (From wildcard) 
  CA     CW     NA     CR      3     13.38880   0.00000 -13.38880   0.00000   0.00000   0.00000 ; (From wildcard) 
  CA     CW     NA     CW      3     13.38880   0.00000 -13.38880   0.00000   0.00000   0.00000 ; (From wildcard) 
  C!     CW     NA     CT      3     13.38880   0.00000 -13.38880   0.00000   0.00000   0.00000 ; (From wildcard) 
  C!     CW     NA     CN      3     13.38880   0.00000 -13.38880   0.00000   0.00000   0.00000 ; (From wildcard) 
  C!     CW     NA     CR      3     13.38880   0.00000 -13.38880   0.00000   0.00000   0.00000 ; (From wildcard) 
  C!     CW     NA     CW      3     13.38880   0.00000 -13.38880   0.00000   0.00000   0.00000 ; (From wildcard) 
  C      CW     NA     CT      3     13.38880   0.00000 -13.38880   0.00000   0.00000   0.00000 ; (From wildcard) 
  C      CW     NA     CN      3     13.38880   0.00000 -13.38880   0.00000   0.00000   0.00000 ; (From wildcard) 
  C      CW     NA     CR      3     13.38880   0.00000 -13.38880   0.00000   0.00000   0.00000 ; (From wildcard) 
  C      CW     NA     CW      3     13.38880   0.00000 -13.38880   0.00000   0.00000   0.00000 ; (From wildcard) 
  C_2    CW     NA     CT      3     13.38880   0.00000 -13.38880   0.00000   0.00000   0.00000 ; (From wildcard) 
  C_2    CW     NA     CN      3     13.38880   0.00000 -13.38880   0.00000   0.00000   0.00000 ; (From wildcard) 
  C_2    CW     NA     CR      3     13.38880   0.00000 -13.38880   0.00000   0.00000   0.00000 ; (From wildcard) 
  C_2    CW     NA     CW      3     13.38880   0.00000 -13.38880   0.00000   0.00000   0.00000 ; (From wildcard) 
  C_3    CW     NA     CT      3     13.38880   0.00000 -13.38880   0.00000   0.00000   0.00000 ; (From wildcard) 
  C_3    CW     NA     CN      3     13.38880   0.00000 -13.38880   0.00000   0.00000   0.00000 ; (From wildcard) 
  C_3    CW     NA     CR      3     13.38880   0.00000 -13.38880   0.00000   0.00000   0.00000 ; (From wildcard) 
  C_3    CW     NA     CW      3     13.38880   0.00000 -13.38880   0.00000   0.00000   0.00000 ; (From wildcard) 
  C*     CW     NA     CT      3     13.38880   0.00000 -13.38880   0.00000   0.00000   0.00000 ; (From wildcard) 
  C*     CW     NA     CR      3     13.38880   0.00000 -13.38880   0.00000   0.00000   0.00000 ; (From wildcard) 
  C*     CW     NA     CW      3     13.38880   0.00000 -13.38880   0.00000   0.00000   0.00000 ; (From wildcard) 
  CV     CW     NA     CT      3     13.38880   0.00000 -13.38880   0.00000   0.00000   0.00000 ; (From wildcard) 
  CV     CW     NA     CN      3     13.38880   0.00000 -13.38880   0.00000   0.00000   0.00000 ; (From wildcard) 
  CV     CW     NA     CR      3     13.38880   0.00000 -13.38880   0.00000   0.00000   0.00000 ; (From wildcard) 
  CV     CW     NA     CW      3     13.38880   0.00000 -13.38880   0.00000   0.00000   0.00000 ; (From wildcard) 
  CW     CW     NA     CT      3     13.38880   0.00000 -13.38880   0.00000   0.00000   0.00000 ; (From wildcard) 
  CW     CW     NA     CN      3     13.38880   0.00000 -13.38880   0.00000   0.00000   0.00000 ; (From wildcard) 
  CW     CW     NA     CR      3     13.38880   0.00000 -13.38880   0.00000   0.00000   0.00000 ; (From wildcard) 
  CW     CW     NA     CW      3     13.38880   0.00000 -13.38880   0.00000   0.00000   0.00000 ; (From wildcard) 
  CS     CW     NA     CT      3     13.38880   0.00000 -13.38880   0.00000   0.00000   0.00000 ; (From wildcard) 
  CS     CW     NA     CN      3     13.38880   0.00000 -13.38880   0.00000   0.00000   0.00000 ; (From wildcard) 
  CS     CW     NA     CR      3     13.38880   0.00000 -13.38880   0.00000   0.00000   0.00000 ; (From wildcard) 
  CS     CW     NA     CW      3     13.38880   0.00000 -13.38880   0.00000   0.00000   0.00000 ; (From wildcard) 
  CT     CW     NA     NB      3     13.38880   0.00000 -13.38880   0.00000   0.00000   0.00000 ; (From wildcard) 
  CA     CW     NA     NB      3     13.38880   0.00000 -13.38880   0.00000   0.00000   0.00000 ; (From wildcard) 
  C!     CW     NA     NB      3     13.38880   0.00000 -13.38880   0.00000   0.00000   0.00000 ; (From wildcard) 
  C      CW     NA     NB      3     13.38880   0.00000 -13.38880   0.00000   0.00000   0.00000 ; (From wildcard) 
  C_2    CW     NA     NB      3     13.38880   0.00000 -13.38880   0.00000   0.00000   0.00000 ; (From wildcard) 
  C_3    CW     NA     NB      3     13.38880   0.00000 -13.38880   0.00000   0.00000   0.00000 ; (From wildcard) 
  C*     CW     NA     NB      3     13.38880   0.00000 -13.38880   0.00000   0.00000   0.00000 ; (From wildcard) 
  CV     CW     NA     NB      3     13.38880   0.00000 -13.38880   0.00000   0.00000   0.00000 ; (From wildcard) 
  CW     CW     NA     NB      3     13.38880   0.00000 -13.38880   0.00000   0.00000   0.00000 ; (From wildcard) 
  CS     CW     NA     NB      3     13.38880   0.00000 -13.38880   0.00000   0.00000   0.00000 ; (From wildcard) 
  CT     NA     CW     HA      3     13.38880   0.00000 -13.38880   0.00000   0.00000   0.00000 ; (From wildcard) 
  CT     NA     CW     H4      3     13.38880   0.00000 -13.38880   0.00000   0.00000   0.00000 ; (From wildcard) 
  CN     NA     CW     H4      3     13.38880   0.00000 -13.38880   0.00000   0.00000   0.00000 ; (From wildcard) 
  CR     NA     CW     H4      3     13.38880   0.00000 -13.38880   0.00000   0.00000   0.00000 ; (From wildcard) 
  CW     NA     CW     HA      3     13.38880   0.00000 -13.38880   0.00000   0.00000   0.00000 ; (From wildcard) 
  CW     NA     CW     H4      3     13.38880   0.00000 -13.38880   0.00000   0.00000   0.00000 ; (From wildcard) 
  CT     NA     CR     NC      3     41.84000   0.00000 -41.84000   0.00000   0.00000   0.00000 ; (From wildcard) 
  CT     NA     CR     NA      3     41.84000   0.00000 -41.84000   0.00000   0.00000   0.00000 ; (From wildcard) 
  CT     NA     CR     NB      3     41.84000   0.00000 -41.84000   0.00000   0.00000   0.00000 ; (From wildcard) 
  CB     NA     CR     NC      3     41.84000   0.00000 -41.84000   0.00000   0.00000   0.00000 ; (From wildcard) 
  CB     NA     CR     NA      3     41.84000   0.00000 -41.84000   0.00000   0.00000   0.00000 ; (From wildcard) 
  CB     NA     CR     NB      3     41.84000   0.00000 -41.84000   0.00000   0.00000   0.00000 ; (From wildcard) 
  CW     NA     CR     NC      3     41.84000   0.00000 -41.84000   0.00000   0.00000   0.00000 ; (From wildcard) 
  CW     NA     CR     NA      3     41.84000   0.00000 -41.84000   0.00000   0.00000   0.00000 ; (From wildcard) 
  CX     NA     CR     NC      3     41.84000   0.00000 -41.84000   0.00000   0.00000   0.00000 ; (From wildcard) 
  CX     NA     CR     NB      3     41.84000   0.00000 -41.84000   0.00000   0.00000   0.00000 ; (From wildcard) 
  CT     CT     NT     CA      3      1.78866   3.49154   0.53555  -5.81576   0.00000   0.00000 ; (From wildcard) amine all-atom
  CT     CT     NT     C       3      1.78866   3.49154   0.53555  -5.81576   0.00000   0.00000 ; (From wildcard) amine all-atom
  CT     CT     NT     C_2     3      1.78866   3.49154   0.53555  -5.81576   0.00000   0.00000 ; (From wildcard) amine all-atom
  CT     CT     NT     C_3     3      1.78866   3.49154   0.53555  -5.81576   0.00000   0.00000 ; (From wildcard) amine all-atom
  CT     CT     NT     C3      3      1.78866   3.49154   0.53555  -5.81576   0.00000   0.00000 ; (From wildcard) amine all-atom
  CA     CT     NT     CA      3      1.78866   3.49154   0.53555  -5.81576   0.00000   0.00000 ; (From wildcard) amine all-atom
  CA     CT     NT     C       3      1.78866   3.49154   0.53555  -5.81576   0.00000   0.00000 ; (From wildcard) amine all-atom
  CA     CT     NT     C_2     3      1.78866   3.49154   0.53555  -5.81576   0.00000   0.00000 ; (From wildcard) amine all-atom
  CA     CT     NT     C_3     3      1.78866   3.49154   0.53555  -5.81576   0.00000   0.00000 ; (From wildcard) amine all-atom
  CA     CT     NT     C3      3      1.78866   3.49154   0.53555  -5.81576   0.00000   0.00000 ; (From wildcard) amine all-atom
  C      CT     NT     CA      3      1.78866   3.49154   0.53555  -5.81576   0.00000   0.00000 ; (From wildcard) amine all-atom
  C      CT     NT     C       3      1.78866   3.49154   0.53555  -5.81576   0.00000   0.00000 ; (From wildcard) amine all-atom
  C      CT     NT     C_2     3      1.78866   3.49154   0.53555  -5.81576   0.00000   0.00000 ; (From wildcard) amine all-atom
  C      CT     NT     C_3     3      1.78866   3.49154   0.53555  -5.81576   0.00000   0.00000 ; (From wildcard) amine all-atom
  C      CT     NT     C3      3      1.78866   3.49154   0.53555  -5.81576   0.00000   0.00000 ; (From wildcard) amine all-atom
  C_2    CT     NT     CA      3      1.78866   3.49154   0.53555  -5.81576   0.00000   0.00000 ; (From wildcard) amine all-atom
  C_2    CT     NT     C       3      1.78866   3.49154   0.53555  -5.81576   0.00000   0.00000 ; (From wildcard) amine all-atom
  C_2    CT     NT     C_2     3      1.78866   3.49154   0.53555  -5.81576   0.00000   0.00000 ; (From wildcard) amine all-atom
  C_2    CT     NT     C_3     3      1.78866   3.49154   0.53555  -5.81576   0.00000   0.00000 ; (From wildcard) amine all-atom
  C_2    CT     NT     C3      3      1.78866   3.49154   0.53555  -5.81576   0.00000   0.00000 ; (From wildcard) amine all-atom
  C_3    CT     NT     CA      3      1.78866   3.49154   0.53555  -5.81576   0.00000   0.00000 ; (From wildcard) amine all-atom
  C_3    CT     NT     C       3      1.78866   3.49154   0.53555  -5.81576   0.00000   0.00000 ; (From wildcard) amine all-atom
  C_3    CT     NT     C_2     3      1.78866   3.49154   0.53555  -5.81576   0.00000   0.00000 ; (From wildcard) amine all-atom
  C_3    CT     NT     C_3     3      1.78866   3.49154   0.53555  -5.81576   0.00000   0.00000 ; (From wildcard) amine all-atom
  C_3    CT     NT     C3      3      1.78866   3.49154   0.53555  -5.81576   0.00000   0.00000 ; (From wildcard) amine all-atom
  C3     CT     NT     CA      3      1.78866   3.49154   0.53555  -5.81576   0.00000   0.00000 ; (From wildcard) amine all-atom
  C3     CT     NT     C       3      1.78866   3.49154   0.53555  -5.81576   0.00000   0.00000 ; (From wildcard) amine all-atom
  C3     CT     NT     C_2     3      1.78866   3.49154   0.53555  -5.81576   0.00000   0.00000 ; (From wildcard) amine all-atom
  C3     CT     NT     C_3     3      1.78866   3.49154   0.53555  -5.81576   0.00000   0.00000 ; (From wildcard) amine all-atom
  C3     CT     NT     C3      3      1.78866   3.49154   0.53555  -5.81576   0.00000   0.00000 ; (From wildcard) amine all-atom
; Residue-specific sidechain dihedrals, and sidechain acids. Use explicitly in rtp or top files.
; Chi-1 N-C-C-O in SER & THR

; Chi-1 CO-C-C-O in SER & THR

; Chi-2 C-C-OH-OH in SER & THR

; Chi-1 N-C-C-S in CYS & CYX

; Chi-1 CO-C-C-S in CYS & CYX

; Chi-1 N-C-C-C in ASN

; Chi-1 C-C-C-CO in ASN

; Chi-2 C-C-CO-N in ASN

; Chi-1 N-C-C-C in GLN

; Chi-1 C-C-C-CO in GLN

; Chi-3 C-C-CO-N in GLN

; Chi-1 N-C-C-C in HIS (HID & HIE)

; Chi-1 C-C-C-CO in HIS (HID & HIE)

; Chi-2 C-C-C-N in HIS (HID & HIE)

; Chi-1 N-C-C-C in HIP

; Chi-1 C-C-C-CO in HIP

; Chi-1 N-C-C-C in LEU

; Chi-1 C-C-C-CO in LEU

; Chi-1 N-C-C-C in VAL

; Chi-1 C-C-C-CO in VAL

; Chi-1 N-C-C-C in ILE

; Chi-1 C-C-C-CO in ILE

; Chi-1 N-C-C-C in MET

; Chi-1 C-C-C-CO in MET

; Chi-1 N-C-C-C in TRP

; Chi-1 C-C-C-CO in TRP

; Chi-1 N-C-C-C in ASP

; Chi-1 C-C-C-CO in ASP

; Chi-1 N-C-C-C in GLU

; Chi-1 C-C-C-CO in GLU

; Chi-1 N-C-C-C in LYS

; Chi-1 C-C-C-CO in LYS

; Chi-5 C-C-N-H in LYSH

; Chi-1 N-C-C-C in ARG

; Chi-1 C-C-C-CO in ARG

; Sidechain RCOOH acid (GLUH and ASPH), O=C-OH-HO dihedral

; Sidechain RCOOH acid (GLUH and ASPH), CT-C-OH-HO dihedral



; Below are extra dihedrals for some special organic molecules. 
; Since the atom types are identical to other dihedrals you have to specify 
; them explicitly with a define if you happen to simulate this type of molecule. 

; CT-C-OH-HO in 1,2-diacid monoanion

; CT-CT-C-O in 1,2-diacid monoanion

; CT-CT-CT-CT in perfluoroalkanes

; CT-CT-NT-CT in exocyclic 1,4-diamines

; CT-CT-NT-CT in exocyclic amines

; CT-CT-NT-H in azetidine / 4 membered cyclic amines

; CT-CT-NT-H in pyrrolidine / 5 membered cyclic amines

; CT-CT-NT-H in cyclic amines

; CT-CT-NT-H in cyclic 1,4-diamines

; HC-C-C-O in dicarbonyls

; OH-CT-CT-OH in diols 

; OH-CT-CT-OH in triols

; CT-CT-CT-OH in polyols

; CT-CT-OH-HO in hexopyranoses

; CT-CT-CT-O? in hexopyranoses

; C-CT-CT-C in dicarboxylic acid

; O-C-OH-HO in dicarboxylic acid

; CT-C-OH-HO in dicarboxylic acid

; HC-C-OH-HO in dicarboxylic acid

; C-CT-CT-HC in dicarboxylic acid

; CT-CT-C-O in dicarboxylic acid

; C-CT-C-OH in dicarboxylic acid




[ dihedraltypes ]
; Improper OPLS dihedrals to keep groups planar.
; (OPLS doesnt use impropers for chiral atoms).
; Since these functions are periodic of the form 1-cos(2*x), they are actually
; implemented as proper dihedrals [1+cos(2*x+180)] for the moment, 
; to keep things compatible.
; The defines are used in ffoplsaa.rtp or directly in your .top file.

; O?-C -X -Y improper torsion. C can be C_2 or C_3 too.

; X-NO-ON-NO improper torsion.

; N2-X-N2-N2 improper torsion.

; Z -N?-X -Y improper torsion

; Z -CM-X -Y improper torsion. CM can be C= too.

; Z -CA-X -Y improper torsion. CA is any ring carbon (CA,CB,CN,CV,CW,CR,CK,CQ,CS,C*)



; Added by DvdS for DMSO 17/06/2006
 [ bondtypes ]
   O2     S    1  0.153	400000

 [ angletypes ]
 O2 S CT 1 107 400
 
 [ dihedraltypes ]
 O2 S CT HC 3       1.35352   4.06057   0.00000  -5.41410   0.00000   0.00000 ; sulfide all-atom
 

[ moleculetype ]
; Name            nrexcl
Other_chain_A       3

[ atoms ]
;   nr       type  resnr residue  atom   cgnr     charge       mass  typeB    chargeB      massB
; residue   1 ETH rtp ETH  q  0.0
     1   opls_135      1    ETH     C1      1          0     12.011
     2   opls_135      1    ETH     C2      2          0     12.011
     3   opls_140      1    ETH     H1      3          0      1.008
     4   opls_140      1    ETH     H2      3          0      1.008
     5   opls_140      1    ETH     H3      3          0      1.008
     6   opls_140      1    ETH     H4      4          0      1.008
     7   opls_140      1    ETH     H5      4          0      1.008
     8   opls_140      1    ETH     H6      4          0      1.008   ; qtot 0
; residue   2 ETH rtp ETH  q  0.0
     9   opls_135      2    ETH     C1      5          0     12.011
    10   opls_135      2    ETH     C2      6          0     12.011
    11   opls_140      2    ETH     H1      7          0      1.008
    12   opls_140      2    ETH     H2      7          0      1.008
    13   opls_140      2    ETH     H3      7          0      1.008
    14   opls_140      2    ETH     H4      8          0      1.008
    15   opls_140      2    ETH     H5      8          0      1.008
    16   opls_140      2    ETH     H6      8          0      1.008   ; qtot 0
; residue   3 ETH rtp ETH  q  0.0
    17   opls_135      3    ETH     C1      9          0     12.011
    18   opls_135      3    ETH     C2     10          0     12.011
    19   opls_140      3    ETH     H1     11          0      1.008
    20   opls_140      3    ETH     H2     11          0      1.008
    21   opls_140      3    ETH     H3     11          0      1.008
    22   opls_140      3    ETH     H4     12          0      1.008
    23   opls_140      3    ETH     H5     12          0      1.008
    24   opls_140      3    ETH     H6     12          0      1.008   ; qtot 0
; residue   4 ETH rtp ETH  q  0.0
    25   opls_135      4    ETH     C1     13          0     12.011
    26   opls_135      4    ETH     C2     14          0     12.011
    27   opls_140      4    ETH     H1     15          0      1.008
    28   opls_140      4    ETH     H2     15          0      1.008
    29   opls_140      4    ETH     H3     15          0      1.008
    30   opls_140      4    ETH     H4     16          0      1.008
    31   opls_140      4    ETH     H5     16          0      1.008
    32   opls_140      4    ETH     H6     16          0      1.008   ; qtot 0
; residue   5 ETH rtp ETH  q  0.0
    33   opls_135      5    ETH     C1     17          0     12.011
    34   opls_135      5    ETH     C2     18          0     12.011
    35   opls_140      5    ETH     H1     19          0      1.008
    36   opls_140      5    ETH     H2     19          0      1.008
    37   opls_140      5    ETH     H3     19          0      1.008
    38   opls_140      5    ETH     H4     20          0      1.008
    39   opls_140      5    ETH     H5     20          0      1.008
    40   opls_140      5    ETH     H6     20          0      1.008   ; qtot 0
; residue   6 ETH rtp ETH  q  0.0
    41   opls_135      6    ETH     C1     21          0     12.011
    42   opls_135      6    ETH     C2     22          0     12.011
    43   opls_140      6    ETH     H1     23          0      1.008
    44   opls_140      6    ETH     H2     23          0      1.008
    45   opls_140      6    ETH     H3     23          0      1.008
    46   opls_140      6    ETH     H4     24          0      1.008
    47   opls_140      6    ETH     H5     24          0      1.008
    48   opls_140      6    ETH     H6     24          0      1.008   ; qtot 0
; residue   7 ETH rtp ETH  q  0.0
    49   opls_135      7    ETH     C1     25          0     12.011
    50   opls_135      7    ETH     C2     26          0     12.011
    51   opls_140      7    ETH     H1     27          0      1.008
    52   opls_140      7    ETH     H2     27          0      1.008
    53   opls_140      7    ETH     H3     27          0      1.008
    54   opls_140      7    ETH     H4     28          0      1.008
    55   opls_140      7    ETH     H5     28          0      1.008
    56   opls_140      7    ETH     H6     28          0      1.008   ; qtot 0
; residue   8 ETH rtp ETH  q  0.0
    57   opls_135      8    ETH     C1     29          0     12.011
    58   opls_135      8    ETH     C2     30          0     12.011
    59   opls_140      8    ETH     H1     31          0      1.008
    60   opls_140      8    ETH     H2     31          0      1.008
    61   opls_140      8    ETH     H3     31          0      1.008
    62   opls_140      8    ETH     H4     32          0      1.008
    63   opls_140      8    ETH     H5     32          0      1.008
    64   opls_140      8    ETH     H6     32          0      1.008   ; qtot 0
; residue   9 ETH rtp ETH  q  0.0
    65   opls_135      9    ETH     C1     33          0     12.011
    66   opls_135      9    ETH     C2     34          0     12.011
    67   opls_140      9    ETH     H1     35          0      1.008
    68   opls_140      9    ETH     H2     35          0      1.008
    69   opls_140      9    ETH     H3     35          0      1.008
    70   opls_140      9    ETH     H4     36          0      1.008
    71   opls_140      9    ETH     H5     36          0      1.008
    72   opls_140      9    ETH     H6     36          0      1.008   ; qtot 0
; residue  10 ETH rtp ETH  q  0.0
    73   opls_135     10    ETH     C1     37          0     12.011
    74   opls_135     10    ETH     C2     38          0     12.011
    75   opls_140     10    ETH     H1     39          0      1.008
    76   opls_140     10    ETH     H2     39          0      1.008
    77   opls_140     10    ETH     H3     39          0      1.008
    78   opls_140     10    ETH     H4     40          0      1.008
    79   opls_140     10    ETH     H5     40          0      1.008
    80   opls_140     10    ETH     H6     40          0      1.008   ; qtot 0
; residue  11 ETH rtp ETH  q  0.0
    81   opls_135     11    ETH     C1     41          0     12.011
    82   opls_135     11    ETH     C2     42          0     12.011
    83   opls_140     11    ETH     H1     43          0      1.008
    84   opls_140     11    ETH     H2     43          0      1.008
    85   opls_140     11    ETH     H3     43          0      1.008
    86   opls_140     11    ETH     H4     44          0      1.008
    87   opls_140     11    ETH     H5     44          0      1.008
    88   opls_140     11    ETH     H6     44          0      1.008   ; qtot 0
; residue  12 ETH rtp ETH  q  0.0
    89   opls_135     12    ETH     C1     45          0     12.011
    90   opls_135     12    ETH     C2     46          0     12.011
    91   opls_140     12    ETH     H1     47          0      1.008
    92   opls_140     12    ETH     H2     47          0      1.008
    93   opls_140     12    ETH     H3     47          0      1.008
    94   opls_140     12    ETH     H4     48          0      1.008
    95   opls_140     12    ETH     H5     48          0      1.008
    96   opls_140     12    ETH     H6     48          0      1.008   ; qtot 0
; residue  13 ETH rtp ETH  q  0.0
    97   opls_135     13    ETH     C1     49          0     12.011
    98   opls_135     13    ETH     C2     50          0     12.011
    99   opls_140     13    ETH     H1     51          0      1.008
   100   opls_140     13    ETH     H2     51          0      1.008
   101   opls_140     13    ETH     H3     51          0      1.008
   102   opls_140     13    ETH     H4     52          0      1.008
   103   opls_140     13    ETH     H5     52          0      1.008
   104   opls_140     13    ETH     H6     52          0      1.008   ; qtot 0
; residue  14 ETH rtp ETH  q  0.0
   105   opls_135     14    ETH     C1     53          0     12.011
   106   opls_135     14    ETH     C2     54          0     12.011
   107   opls_140     14    ETH     H1     55          0      1.008
   108   opls_140     14    ETH     H2     55          0      1.008
   109   opls_140     14    ETH     H3     55          0      1.008
   110   opls_140     14    ETH     H4     56          0      1.008
   111   opls_140     14    ETH     H5     56          0      1.008
   112   opls_140     14    ETH     H6     56          0      1.008   ; qtot 0
; residue  15 ETH rtp ETH  q  0.0
   113   opls_135     15    ETH     C1     57          0     12.011
   114   opls_135     15    ETH     C2     58          0     12.011
   115   opls_140     15    ETH     H1     59          0      1.008
   116   opls_140     15    ETH     H2     59          0      1.008
   117   opls_140     15    ETH     H3     59          0      1.008
   118   opls_140     15    ETH     H4     60          0      1.008
   119   opls_140     15    ETH     H5     60          0      1.008
   120   opls_140     15    ETH     H6     60          0      1.008   ; qtot 0
; residue  16 ETH rtp ETH  q  0.0
   121   opls_135     16    ETH     C1     61          0     12.011
   122   opls_135     16    ETH     C2     62          0     12.011
   123   opls_140     16    ETH     H1     63          0      1.008
   124   opls_140     16    ETH     H2     63          0      1.008
   125   opls_140     16    ETH     H3     63          0      1.008
   126   opls_140     16    ETH     H4     64          0      1.008
   127   opls_140     16    ETH     H5     64          0      1.008
   128   opls_140     16    ETH     H6     64          0      1.008   ; qtot 0
; residue  17 ETH rtp ETH  q  0.0
   129   opls_135     17    ETH     C1     65          0     12.011
   130   opls_135     17    ETH     C2     66          0     12.011
   131   opls_140     17    ETH     H1     67          0      1.008
   132   opls_140     17    ETH     H2     67          0      1.008
   133   opls_140     17    ETH     H3     67          0      1.008
   134   opls_140     17    ETH     H4     68          0      1.008
   135   opls_140     17    ETH     H5     68          0      1.008
   136   opls_140     17    ETH     H6     68          0      1.008   ; qtot 0
; residue  18 ETH rtp ETH  q  0.0
   137   opls_135     18    ETH     C1     69          0     12.011
   138   opls_135     18    ETH     C2     70          0     12.011
   139   opls_140     18    ETH     H1     71          0      1.008
   140   opls_140     18    ETH     H2     71          0      1.008
   141   opls_140     18    ETH     H3     71          0      1.008
   142   opls_140     18    ETH     H4     72          0      1.008
   143   opls_140     18    ETH     H5     72          0      1.008
   144   opls_140     18    ETH     H6     72          0      1.008   ; qtot 0
; residue  19 ETH rtp ETH  q  0.0
   145   opls_135     19    ETH     C1     73          0     12.011
   146   opls_135     19    ETH     C2     74          0     12.011
   147   opls_140     19    ETH     H1     75          0      1.008
   148   opls_140     19    ETH     H2     75          0      1.008
   149   opls_140     19    ETH     H3     75          0      1.008
   150   opls_140     19    ETH     H4     76          0      1.008
   151   opls_140     19    ETH     H5     76          0      1.008
   152   opls_140     19    ETH     H6     76          0      1.008   ; qtot 0
; residue  20 ETH rtp ETH  q  0.0
   153   opls_135     20    ETH     C1     77          0     12.011
   154   opls_135     20    ETH     C2     78          0     12.011
   155   opls_140     20    ETH     H1     79          0      1.008
   156   opls_140     20    ETH     H2     79          0      1.008
   157   opls_140     20    ETH     H3     79          0      1.008
   158   opls_140     20    ETH     H4     80          0      1.008
   159   opls_140     20    ETH     H5     80          0      1.008
   160   opls_140     20    ETH     H6     80          0      1.008   ; qtot 0
; residue  21 ETH rtp ETH  q  0.0
   161   opls_135     21    ETH     C1     81          0     12.011
   162   opls_135     21    ETH     C2     82          0     12.011
   163   opls_140     21    ETH     H1     83          0      1.008
   164   opls_140     21    ETH     H2     83          0      1.008
   165   opls_140     21    ETH     H3     83          0      1.008
   166   opls_140     21    ETH     H4     84          0      1.008
   167   opls_140     21    ETH     H5     84          0      1.008
   168   opls_140     21    ETH     H6     84          0      1.008   ; qtot 0
; residue  22 ETH rtp ETH  q  0.0
   169   opls_135     22    ETH     C1     85          0     12.011
   170   opls_135     22    ETH     C2     86          0     12.011
   171   opls_140     22    ETH     H1     87          0      1.008
   172   opls_140     22    ETH     H2     87          0      1.008
   173   opls_140     22    ETH     H3     87          0      1.008
   174   opls_140     22    ETH     H4     88          0      1.008
   175   opls_140     22    ETH     H5     88          0      1.008
   176   opls_140     22    ETH     H6     88          0      1.008   ; qtot 0
; residue  23 ETH rtp ETH  q  0.0
   177   opls_135     23    ETH     C1     89          0     12.011
   178   opls_135     23    ETH     C2     90          0     12.011
   179   opls_140     23    ETH     H1     91          0      1.008
   180   opls_140     23    ETH     H2     91          0      1.008
   181   opls_140     23    ETH     H3     91          0      1.008
   182   opls_140     23    ETH     H4     92          0      1.008
   183   opls_140     23    ETH     H5     92          0      1.008
   184   opls_140     23    ETH     H6     92          0      1.008   ; qtot 0
; residue  24 ETH rtp ETH  q  0.0
   185   opls_135     24    ETH     C1     93          0     12.011
   186   opls_135     24    ETH     C2     94          0     12.011
   187   opls_140     24    ETH     H1     95          0      1.008
   188   opls_140     24    ETH     H2     95          0      1.008
   189   opls_140     24    ETH     H3     95          0      1.008
   190   opls_140     24    ETH     H4     96          0      1.008
   191   opls_140     24    ETH     H5     96          0      1.008
   192   opls_140     24    ETH     H6     96          0      1.008   ; qtot 0
; residue  25 ETH rtp ETH  q  0.0
   193   opls_135     25    ETH     C1     97          0     12.011
   194   opls_135     25    ETH     C2     98          0     12.011
   195   opls_140     25    ETH     H1     99          0      1.008
   196   opls_140     25    ETH     H2     99          0      1.008
   197   opls_140     25    ETH     H3     99          0      1.008
   198   opls_140     25    ETH     H4    100          0      1.008
   199   opls_140     25    ETH     H5    100          0      1.008
   200   opls_140     25    ETH     H6    100          0      1.008   ; qtot 0
; residue  26 ETH rtp ETH  q  0.0
   201   opls_135     26    ETH     C1    101          0     12.011
   202   opls_135     26    ETH     C2    102          0     12.011
   203   opls_140     26    ETH     H1    103          0      1.008
   204   opls_140     26    ETH     H2    103          0      1.008
   205   opls_140     26    ETH     H3    103          0      1.008
   206   opls_140     26    ETH     H4    104          0      1.008
   207   opls_140     26    ETH     H5    104          0      1.008
   208   opls_140     26    ETH     H6    104          0      1.008   ; qtot 0
; residue  27 ETH rtp ETH  q  0.0
   209   opls_135     27    ETH     C1    105          0     12.011
   210   opls_135     27    ETH     C2    106          0     12.011
   211   opls_140     27    ETH     H1    107          0      1.008
   212   opls_140     27    ETH     H2    107          0      1.008
   213   opls_140     27    ETH     H3    107          0      1.008
   214   opls_140     27    ETH     H4    108          0      1.008
   215   opls_140     27    ETH     H5    108          0      1.008
   216   opls_140     27    ETH     H6    108          0      1.008   ; qtot 0
; residue  28 ETH rtp ETH  q  0.0
   217   opls_135     28    ETH     C1    109          0     12.011
   218   opls_135     28    ETH     C2    110          0     12.011
   219   opls_140     28    ETH     H1    111          0      1.008
   220   opls_140     28    ETH     H2    111          0      1.008
   221   opls_140     28    ETH     H3    111          0      1.008
   222   opls_140     28    ETH     H4    112          0      1.008
   223   opls_140     28    ETH     H5    112          0      1.008
   224   opls_140     28    ETH     H6    112          0      1.008   ; qtot 0
; residue  29 ETH rtp ETH  q  0.0
   225   opls_135     29    ETH     C1    113          0     12.011
   226   opls_135     29    ETH     C2    114          0     12.011
   227   opls_140     29    ETH     H1    115          0      1.008
   228   opls_140     29    ETH     H2    115          0      1.008
   229   opls_140     29    ETH     H3    115          0      1.008
   230   opls_140     29    ETH     H4    116          0      1.008
   231   opls_140     29    ETH     H5    116          0      1.008
   232   opls_140     29    ETH     H6    116          0      1.008   ; qtot 0
; residue  30 ETH rtp ETH  q  0.0
   233   opls_135     30    ETH     C1    117          0     12.011
   234   opls_135     30    ETH     C2    118          0     12.011
   235   opls_140     30    ETH     H1    119          0      1.008
   236   opls_140     30    ETH     H2    119          0      1.008
   237   opls_140     30    ETH     H3    119          0      1.008
   238   opls_140     30    ETH     H4    120          0      1.008
   239   opls_140     30    ETH     H5    120          0      1.008
   240   opls_140     30    ETH     H6    120          0      1.008   ; qtot 0
; residue  31 ETH rtp ETH  q  0.0
   241   opls_135     31    ETH     C1    121          0     12.011
   242   opls_135     31    ETH     C2    122          0     12.011
   243   opls_140     31    ETH     H1    123          0      1.008
   244   opls_140     31    ETH     H2    123          0      1.008
   245   opls_140     31    ETH     H3    123          0      1.008
   246   opls_140     31    ETH     H4    124          0      1.008
   247   opls_140     31    ETH     H5    124          0      1.008
   248   opls_140     31    ETH     H6    124          0      1.008   ; qtot 0
; residue  32 ETH rtp ETH  q  0.0
   249   opls_135     32    ETH     C1    125          0     12.011
   250   opls_135     32    ETH     C2    126          0     12.011
   251   opls_140     32    ETH     H1    127          0      1.008
   252   opls_140     32    ETH     H2    127          0      1.008
   253   opls_140     32    ETH     H3    127          0      1.008
   254   opls_140     32    ETH     H4    128          0      1.008
   255   opls_140     32    ETH     H5    128          0      1.008
   256   opls_140     32    ETH     H6    128          0      1.008   ; qtot 0
; residue  33 ETH rtp ETH  q  0.0
   257   opls_135     33    ETH     C1    129          0     12.011
   258   opls_135     33    ETH     C2    130          0     12.011
   259   opls_140     33    ETH     H1    131          0      1.008
   260   opls_140     33    ETH     H2    131          0      1.008
   261   opls_140     33    ETH     H3    131          0      1.008
   262   opls_140     33    ETH     H4    132          0      1.008
   263   opls_140     33    ETH     H5    132          0      1.008
   264   opls_140     33    ETH     H6    132          0      1.008   ; qtot 0
; residue  34 ETH rtp ETH  q  0.0
   265   opls_135     34    ETH     C1    133          0     12.011
   266   opls_135     34    ETH     C2    134          0     12.011
   267   opls_140     34    ETH     H1    135          0      1.008
   268   opls_140     34    ETH     H2    135          0      1.008
   269   opls_140     34    ETH     H3    135          0      1.008
   270   opls_140     34    ETH     H4    136          0      1.008
   271   opls_140     34    ETH     H5    136          0      1.008
   272   opls_140     34    ETH     H6    136          0      1.008   ; qtot 0
; residue  35 ETH rtp ETH  q  0.0
   273   opls_135     35    ETH     C1    137          0     12.011
   274   opls_135     35    ETH     C2    138          0     12.011
   275   opls_140     35    ETH     H1    139          0      1.008
   276   opls_140     35    ETH     H2    139          0      1.008
   277   opls_140     35    ETH     H3    139          0      1.008
   278   opls_140     35    ETH     H4    140          0      1.008
   279   opls_140     35    ETH     H5    140          0      1.008
   280   opls_140     35    ETH     H6    140          0      1.008   ; qtot 0
; residue  36 ETH rtp ETH  q  0.0
   281   opls_135     36    ETH     C1    141          0     12.011
   282   opls_135     36    ETH     C2    142          0     12.011
   283   opls_140     36    ETH     H1    143          0      1.008
   284   opls_140     36    ETH     H2    143          0      1.008
   285   opls_140     36    ETH     H3    143          0      1.008
   286   opls_140     36    ETH     H4    144          0      1.008
   287   opls_140     36    ETH     H5    144          0      1.008
   288   opls_140     36    ETH     H6    144          0      1.008   ; qtot 0
; residue  37 ETH rtp ETH  q  0.0
   289   opls_135     37    ETH     C1    145          0     12.011
   290   opls_135     37    ETH     C2    146          0     12.011
   291   opls_140     37    ETH     H1    147          0      1.008
   292   opls_140     37    ETH     H2    147          0      1.008
   293   opls_140     37    ETH     H3    147          0      1.008
   294   opls_140     37    ETH     H4    148          0      1.008
   295   opls_140     37    ETH     H5    148          0      1.008
   296   opls_140     37    ETH     H6    148          0      1.008   ; qtot 0
; residue  38 ETH rtp ETH  q  0.0
   297   opls_135     38    ETH     C1    149          0     12.011
   298   opls_135     38    ETH     C2    150          0     12.011
   299   opls_140     38    ETH     H1    151          0      1.008
   300   opls_140     38    ETH     H2    151          0      1.008
   301   opls_140     38    ETH     H3    151          0      1.008
   302   opls_140     38    ETH     H4    152          0      1.008
   303   opls_140     38    ETH     H5    152          0      1.008
   304   opls_140     38    ETH     H6    152          0      1.008   ; qtot 0
; residue  39 ETH rtp ETH  q  0.0
   305   opls_135     39    ETH     C1    153          0     12.011
   306   opls_135     39    ETH     C2    154          0     12.011
   307   opls_140     39    ETH     H1    155          0      1.008
   308   opls_140     39    ETH     H2    155          0      1.008
   309   opls_140     39    ETH     H3    155          0      1.008
   310   opls_140     39    ETH     H4    156          0      1.008
   311   opls_140     39    ETH     H5    156          0      1.008
   312   opls_140     39    ETH     H6    156          0      1.008   ; qtot 0
; residue  40 ETH rtp ETH  q  0.0
   313   opls_135     40    ETH     C1    157          0     12.011
   314   opls_135     40    ETH     C2    158          0     12.011
   315   opls_140     40    ETH     H1    159          0      1.008
   316   opls_140     40    ETH     H2    159          0      1.008
   317   opls_140     40    ETH     H3    159          0      1.008
   318   opls_140     40    ETH     H4    160          0      1.008
   319   opls_140     40    ETH     H5    160          0      1.008
   320   opls_140     40    ETH     H6    160          0      1.008   ; qtot 0
; residue  41 ETH rtp ETH  q  0.0
   321   opls_135     41    ETH     C1    161          0     12.011
   322   opls_135     41    ETH     C2    162          0     12.011
   323   opls_140     41    ETH     H1    163          0      1.008
   324   opls_140     41    ETH     H2    163          0      1.008
   325   opls_140     41    ETH     H3    163          0      1.008
   326   opls_140     41    ETH     H4    164          0      1.008
   327   opls_140     41    ETH     H5    164          0      1.008
   328   opls_140     41    ETH     H6    164          0      1.008   ; qtot 0
; residue  42 ETH rtp ETH  q  0.0
   329   opls_135     42    ETH     C1    165          0     12.011
   330   opls_135     42    ETH     C2    166          0     12.011
   331   opls_140     42    ETH     H1    167          0      1.008
   332   opls_140     42    ETH     H2    167          0      1.008
   333   opls_140     42    ETH     H3    167          0      1.008
   334   opls_140     42    ETH     H4    168          0      1.008
   335   opls_140     42    ETH     H5    168          0      1.008
   336   opls_140     42    ETH     H6    168          0      1.008   ; qtot 0
; residue  43 ETH rtp ETH  q  0.0
   337   opls_135     43    ETH     C1    169          0     12.011
   338   opls_135     43    ETH     C2    170          0     12.011
   339   opls_140     43    ETH     H1    171          0      1.008
   340   opls_140     43    ETH     H2    171          0      1.008
   341   opls_140     43    ETH     H3    171          0      1.008
   342   opls_140     43    ETH     H4    172          0      1.008
   343   opls_140     43    ETH     H5    172          0      1.008
   344   opls_140     43    ETH     H6    172          0      1.008   ; qtot 0
; residue  44 ETH rtp ETH  q  0.0
   345   opls_135     44    ETH     C1    173          0     12.011
   346   opls_135     44    ETH     C2    174          0     12.011
   347   opls_140     44    ETH     H1    175          0      1.008
   348   opls_140     44    ETH     H2    175          0      1.008
   349   opls_140     44    ETH     H3    175          0      1.008
   350   opls_140     44    ETH     H4    176          0      1.008
   351   opls_140     44    ETH     H5    176          0      1.008
   352   opls_140     44    ETH     H6    176          0      1.008   ; qtot 0
; residue  45 ETH rtp ETH  q  0.0
   353   opls_135     45    ETH     C1    177          0     12.011
   354   opls_135     45    ETH     C2    178          0     12.011
   355   opls_140     45    ETH     H1    179          0      1.008
   356   opls_140     45    ETH     H2    179          0      1.008
   357   opls_140     45    ETH     H3    179          0      1.008
   358   opls_140     45    ETH     H4    180          0      1.008
   359   opls_140     45    ETH     H5    180          0      1.008
   360   opls_140     45    ETH     H6    180          0      1.008   ; qtot 0
; residue  46 ETH rtp ETH  q  0.0
   361   opls_135     46    ETH     C1    181          0     12.011
   362   opls_135     46    ETH     C2    182          0     12.011
   363   opls_140     46    ETH     H1    183          0      1.008
   364   opls_140     46    ETH     H2    183          0      1.008
   365   opls_140     46    ETH     H3    183          0      1.008
   366   opls_140     46    ETH     H4    184          0      1.008
   367   opls_140     46    ETH     H5    184          0      1.008
   368   opls_140     46    ETH     H6    184          0      1.008   ; qtot 0
; residue  47 ETH rtp ETH  q  0.0
   369   opls_135     47    ETH     C1    185          0     12.011
   370   opls_135     47    ETH     C2    186          0     12.011
   371   opls_140     47    ETH     H1    187          0      1.008
   372   opls_140     47    ETH     H2    187          0      1.008
   373   opls_140     47    ETH     H3    187          0      1.008
   374   opls_140     47    ETH     H4    188          0      1.008
   375   opls_140     47    ETH     H5    188          0      1.008
   376   opls_140     47    ETH     H6    188          0      1.008   ; qtot 0
; residue  48 ETH rtp ETH  q  0.0
   377   opls_135     48    ETH     C1    189          0     12.011
   378   opls_135     48    ETH     C2    190          0     12.011
   379   opls_140     48    ETH     H1    191          0      1.008
   380   opls_140     48    ETH     H2    191          0      1.008
   381   opls_140     48    ETH     H3    191          0      1.008
   382   opls_140     48    ETH     H4    192          0      1.008
   383   opls_140     48    ETH     H5    192          0      1.008
   384   opls_140     48    ETH     H6    192          0      1.008   ; qtot 0
; residue  49 ETH rtp ETH  q  0.0
   385   opls_135     49    ETH     C1    193          0     12.011
   386   opls_135     49    ETH     C2    194          0     12.011
   387   opls_140     49    ETH     H1    195          0      1.008
   388   opls_140     49    ETH     H2    195          0      1.008
   389   opls_140     49    ETH     H3    195          0      1.008
   390   opls_140     49    ETH     H4    196          0      1.008
   391   opls_140     49    ETH     H5    196          0      1.008
   392   opls_140     49    ETH     H6    196          0      1.008   ; qtot 0
; residue  50 ETH rtp ETH  q  0.0
   393   opls_135     50    ETH     C1    197          0     12.011
   394   opls_135     50    ETH     C2    198          0     12.011
   395   opls_140     50    ETH     H1    199          0      1.008
   396   opls_140     50    ETH     H2    199          0      1.008
   397   opls_140     50    ETH     H3    199          0      1.008
   398   opls_140     50    ETH     H4    200          0      1.008
   399   opls_140     50    ETH     H5    200          0      1.008
   400   opls_140     50    ETH     H6    200          0      1.008   ; qtot 0
; residue  51 ETH rtp ETH  q  0.0
   401   opls_135     51    ETH     C1    201          0     12.011
   402   opls_135     51    ETH     C2    202          0     12.011
   403   opls_140     51    ETH     H1    203          0      1.008
   404   opls_140     51    ETH     H2    203          0      1.008
   405   opls_140     51    ETH     H3    203          0      1.008
   406   opls_140     51    ETH     H4    204          0      1.008
   407   opls_140     51    ETH     H5    204          0      1.008
   408   opls_140     51    ETH     H6    204          0      1.008   ; qtot 0
; residue  52 ETH rtp ETH  q  0.0
   409   opls_135     52    ETH     C1    205          0     12.011
   410   opls_135     52    ETH     C2    206          0     12.011
   411   opls_140     52    ETH     H1    207          0      1.008
   412   opls_140     52    ETH     H2    207          0      1.008
   413   opls_140     52    ETH     H3    207          0      1.008
   414   opls_140     52    ETH     H4    208          0      1.008
   415   opls_140     52    ETH     H5    208          0      1.008
   416   opls_140     52    ETH     H6    208          0      1.008   ; qtot 0
; residue  53 ETH rtp ETH  q  0.0
   417   opls_135     53    ETH     C1    209          0     12.011
   418   opls_135     53    ETH     C2    210          0     12.011
   419   opls_140     53    ETH     H1    211          0      1.008
   420   opls_140     53    ETH     H2    211          0      1.008
   421   opls_140     53    ETH     H3    211          0      1.008
   422   opls_140     53    ETH     H4    212          0      1.008
   423   opls_140     53    ETH     H5    212          0      1.008
   424   opls_140     53    ETH     H6    212          0      1.008   ; qtot 0
; residue  54 ETH rtp ETH  q  0.0
   425   opls_135     54    ETH     C1    213          0     12.011
   426   opls_135     54    ETH     C2    214          0     12.011
   427   opls_140     54    ETH     H1    215          0      1.008
   428   opls_140     54    ETH     H2    215          0      1.008
   429   opls_140     54    ETH     H3    215          0      1.008
   430   opls_140     54    ETH     H4    216          0      1.008
   431   opls_140     54    ETH     H5    216          0      1.008
   432   opls_140     54    ETH     H6    216          0      1.008   ; qtot 0
; residue  55 ETH rtp ETH  q  0.0
   433   opls_135     55    ETH     C1    217          0     12.011
   434   opls_135     55    ETH     C2    218          0     12.011
   435   opls_140     55    ETH     H1    219          0      1.008
   436   opls_140     55    ETH     H2    219          0      1.008
   437   opls_140     55    ETH     H3    219          0      1.008
   438   opls_140     55    ETH     H4    220          0      1.008
   439   opls_140     55    ETH     H5    220          0      1.008
   440   opls_140     55    ETH     H6    220          0      1.008   ; qtot 0
; residue  56 ETH rtp ETH  q  0.0
   441   opls_135     56    ETH     C1    221          0     12.011
   442   opls_135     56    ETH     C2    222          0     12.011
   443   opls_140     56    ETH     H1    223          0      1.008
   444   opls_140     56    ETH     H2    223          0      1.008
   445   opls_140     56    ETH     H3    223          0      1.008
   446   opls_140     56    ETH     H4    224          0      1.008
   447   opls_140     56    ETH     H5    224          0      1.008
   448   opls_140     56    ETH     H6    224          0      1.008   ; qtot 0
; residue  57 ETH rtp ETH  q  0.0
   449   opls_135     57    ETH     C1    225          0     12.011
   450   opls_135     57    ETH     C2    226          0     12.011
   451   opls_140     57    ETH     H1    227          0      1.008
   452   opls_140     57    ETH     H2    227          0      1.008
   453   opls_140     57    ETH     H3    227          0      1.008
   454   opls_140     57    ETH     H4    228          0      1.008
   455   opls_140     57    ETH     H5    228          0      1.008
   456   opls_140     57    ETH     H6    228          0      1.008   ; qtot 0
; residue  58 ETH rtp ETH  q  0.0
   457   opls_135     58    ETH     C1    229          0     12.011
   458   opls_135     58    ETH     C2    230          0     12.011
   459   opls_140     58    ETH     H1    231          0      1.008
   460   opls_140     58    ETH     H2    231          0      1.008
   461   opls_140     58    ETH     H3    231          0      1.008
   462   opls_140     58    ETH     H4    232          0      1.008
   463   opls_140     58    ETH     H5    232          0      1.008
   464   opls_140     58    ETH     H6    232          0      1.008   ; qtot 0
; residue  59 ETH rtp ETH  q  0.0
   465   opls_135     59    ETH     C1    233          0     12.011
   466   opls_135     59    ETH     C2    234          0     12.011
   467   opls_140     59    ETH     H1    235          0      1.008
   468   opls_140     59    ETH     H2    235          0      1.008
   469   opls_140     59    ETH     H3    235          0      1.008
   470   opls_140     59    ETH     H4    236          0      1.008
   471   opls_140     59    ETH     H5    236          0      1.008
   472   opls_140     59    ETH     H6    236          0      1.008   ; qtot 0
; residue  60 ETH rtp ETH  q  0.0
   473   opls_135     60    ETH     C1    237          0     12.011
   474   opls_135     60    ETH     C2    238          0     12.011
   475   opls_140     60    ETH     H1    239          0      1.008
   476   opls_140     60    ETH     H2    239          0      1.008
   477   opls_140     60    ETH     H3    239          0      1.008
   478   opls_140     60    ETH     H4    240          0      1.008
   479   opls_140     60    ETH     H5    240          0      1.008
   480   opls_140     60    ETH     H6    240          0      1.008   ; qtot 0
; residue  61 ETH rtp ETH  q  0.0
   481   opls_135     61    ETH     C1    241          0     12.011
   482   opls_135     61    ETH     C2    242          0     12.011
   483   opls_140     61    ETH     H1    243          0      1.008
   484   opls_140     61    ETH     H2    243          0      1.008
   485   opls_140     61    ETH     H3    243          0      1.008
   486   opls_140     61    ETH     H4    244          0      1.008
   487   opls_140     61    ETH     H5    244          0      1.008
   488   opls_140     61    ETH     H6    244          0      1.008   ; qtot 0
; residue  62 ETH rtp ETH  q  0.0
   489   opls_135     62    ETH     C1    245          0     12.011
   490   opls_135     62    ETH     C2    246          0     12.011
   491   opls_140     62    ETH     H1    247          0      1.008
   492   opls_140     62    ETH     H2    247          0      1.008
   493   opls_140     62    ETH     H3    247          0      1.008
   494   opls_140     62    ETH     H4    248          0      1.008
   495   opls_140     62    ETH     H5    248          0      1.008
   496   opls_140     62    ETH     H6    248          0      1.008   ; qtot 0
; residue  63 ETH rtp ETH  q  0.0
   497   opls_135     63    ETH     C1    249          0     12.011
   498   opls_135     63    ETH     C2    250          0     12.011
   499   opls_140     63    ETH     H1    251          0      1.008
   500   opls_140     63    ETH     H2    251          0      1.008
   501   opls_140     63    ETH     H3    251          0      1.008
   502   opls_140     63    ETH     H4    252          0      1.008
   503   opls_140     63    ETH     H5    252          0      1.008
   504   opls_140     63    ETH     H6    252          0      1.008   ; qtot 0
; residue  64 ETH rtp ETH  q  0.0
   505   opls_135     64    ETH     C1    253          0     12.011
   506   opls_135     64    ETH     C2    254          0     12.011
   507   opls_140     64    ETH     H1    255          0      1.008
   508   opls_140     64    ETH     H2    255          0      1.008
   509   opls_140     64    ETH     H3    255          0      1.008
   510   opls_140     64    ETH     H4    256          0      1.008
   511   opls_140     64    ETH     H5    256          0      1.008
   512   opls_140     64    ETH     H6    256          0      1.008   ; qtot 0
; residue  65 ETH rtp ETH  q  0.0
   513   opls_135     65    ETH     C1    257          0     12.011
   514   opls_135     65    ETH     C2    258          0     12.011
   515   opls_140     65    ETH     H1    259          0      1.008
   516   opls_140     65    ETH     H2    259          0      1.008
   517   opls_140     65    ETH     H3    259          0      1.008
   518   opls_140     65    ETH     H4    260          0      1.008
   519   opls_140     65    ETH     H5    260          0      1.008
   520   opls_140     65    ETH     H6    260          0      1.008   ; qtot 0
; residue  66 ETH rtp ETH  q  0.0
   521   opls_135     66    ETH     C1    261          0     12.011
   522   opls_135     66    ETH     C2    262          0     12.011
   523   opls_140     66    ETH     H1    263          0      1.008
   524   opls_140     66    ETH     H2    263          0      1.008
   525   opls_140     66    ETH     H3    263          0      1.008
   526   opls_140     66    ETH     H4    264          0      1.008
   527   opls_140     66    ETH     H5    264          0      1.008
   528   opls_140     66    ETH     H6    264          0      1.008   ; qtot 0
; residue  67 ETH rtp ETH  q  0.0
   529   opls_135     67    ETH     C1    265          0     12.011
   530   opls_135     67    ETH     C2    266          0     12.011
   531   opls_140     67    ETH     H1    267          0      1.008
   532   opls_140     67    ETH     H2    267          0      1.008
   533   opls_140     67    ETH     H3    267          0      1.008
   534   opls_140     67    ETH     H4    268          0      1.008
   535   opls_140     67    ETH     H5    268          0      1.008
   536   opls_140     67    ETH     H6    268          0      1.008   ; qtot 0
; residue  68 ETH rtp ETH  q  0.0
   537   opls_135     68    ETH     C1    269          0     12.011
   538   opls_135     68    ETH     C2    270          0     12.011
   539   opls_140     68    ETH     H1    271          0      1.008
   540   opls_140     68    ETH     H2    271          0      1.008
   541   opls_140     68    ETH     H3    271          0      1.008
   542   opls_140     68    ETH     H4    272          0      1.008
   543   opls_140     68    ETH     H5    272          0      1.008
   544   opls_140     68    ETH     H6    272          0      1.008   ; qtot 0
; residue  69 ETH rtp ETH  q  0.0
   545   opls_135     69    ETH     C1    273          0     12.011
   546   opls_135     69    ETH     C2    274          0     12.011
   547   opls_140     69    ETH     H1    275          0      1.008
   548   opls_140     69    ETH     H2    275          0      1.008
   549   opls_140     69    ETH     H3    275          0      1.008
   550   opls_140     69    ETH     H4    276          0      1.008
   551   opls_140     69    ETH     H5    276          0      1.008
   552   opls_140     69    ETH     H6    276          0      1.008   ; qtot 0
; residue  70 ETH rtp ETH  q  0.0
   553   opls_135     70    ETH     C1    277          0     12.011
   554   opls_135     70    ETH     C2    278          0     12.011
   555   opls_140     70    ETH     H1    279          0      1.008
   556   opls_140     70    ETH     H2    279          0      1.008
   557   opls_140     70    ETH     H3    279          0      1.008
   558   opls_140     70    ETH     H4    280          0      1.008
   559   opls_140     70    ETH     H5    280          0      1.008
   560   opls_140     70    ETH     H6    280          0      1.008   ; qtot 0
; residue  71 ETH rtp ETH  q  0.0
   561   opls_135     71    ETH     C1    281          0     12.011
   562   opls_135     71    ETH     C2    282          0     12.011
   563   opls_140     71    ETH     H1    283          0      1.008
   564   opls_140     71    ETH     H2    283          0      1.008
   565   opls_140     71    ETH     H3    283          0      1.008
   566   opls_140     71    ETH     H4    284          0      1.008
   567   opls_140     71    ETH     H5    284          0      1.008
   568   opls_140     71    ETH     H6    284          0      1.008   ; qtot 0
; residue  72 ETH rtp ETH  q  0.0
   569   opls_135     72    ETH     C1    285          0     12.011
   570   opls_135     72    ETH     C2    286          0     12.011
   571   opls_140     72    ETH     H1    287          0      1.008
   572   opls_140     72    ETH     H2    287          0      1.008
   573   opls_140     72    ETH     H3    287          0      1.008
   574   opls_140     72    ETH     H4    288          0      1.008
   575   opls_140     72    ETH     H5    288          0      1.008
   576   opls_140     72    ETH     H6    288          0      1.008   ; qtot 0
; residue  73 ETH rtp ETH  q  0.0
   577   opls_135     73    ETH     C1    289          0     12.011
   578   opls_135     73    ETH     C2    290          0     12.011
   579   opls_140     73    ETH     H1    291          0      1.008
   580   opls_140     73    ETH     H2    291          0      1.008
   581   opls_140     73    ETH     H3    291          0      1.008
   582   opls_140     73    ETH     H4    292          0      1.008
   583   opls_140     73    ETH     H5    292          0      1.008
   584   opls_140     73    ETH     H6    292          0      1.008   ; qtot 0
; residue  74 ETH rtp ETH  q  0.0
   585   opls_135     74    ETH     C1    293          0     12.011
   586   opls_135     74    ETH     C2    294          0     12.011
   587   opls_140     74    ETH     H1    295          0      1.008
   588   opls_140     74    ETH     H2    295          0      1.008
   589   opls_140     74    ETH     H3    295          0      1.008
   590   opls_140     74    ETH     H4    296          0      1.008
   591   opls_140     74    ETH     H5    296          0      1.008
   592   opls_140     74    ETH     H6    296          0      1.008   ; qtot 0
; residue  75 ETH rtp ETH  q  0.0
   593   opls_135     75    ETH     C1    297          0     12.011
   594   opls_135     75    ETH     C2    298          0     12.011
   595   opls_140     75    ETH     H1    299          0      1.008
   596   opls_140     75    ETH     H2    299          0      1.008
   597   opls_140     75    ETH     H3    299          0      1.008
   598   opls_140     75    ETH     H4    300          0      1.008
   599   opls_140     75    ETH     H5    300          0      1.008
   600   opls_140     75    ETH     H6    300          0      1.008   ; qtot 0
; residue  76 ETH rtp ETH  q  0.0
   601   opls_135     76    ETH     C1    301          0     12.011
   602   opls_135     76    ETH     C2    302          0     12.011
   603   opls_140     76    ETH     H1    303          0      1.008
   604   opls_140     76    ETH     H2    303          0      1.008
   605   opls_140     76    ETH     H3    303          0      1.008
   606   opls_140     76    ETH     H4    304          0      1.008
   607   opls_140     76    ETH     H5    304          0      1.008
   608   opls_140     76    ETH     H6    304          0      1.008   ; qtot 0
; residue  77 ETH rtp ETH  q  0.0
   609   opls_135     77    ETH     C1    305          0     12.011
   610   opls_135     77    ETH     C2    306          0     12.011
   611   opls_140     77    ETH     H1    307          0      1.008
   612   opls_140     77    ETH     H2    307          0      1.008
   613   opls_140     77    ETH     H3    307          0      1.008
   614   opls_140     77    ETH     H4    308          0      1.008
   615   opls_140     77    ETH     H5    308          0      1.008
   616   opls_140     77    ETH     H6    308          0      1.008   ; qtot 0
; residue  78 ETH rtp ETH  q  0.0
   617   opls_135     78    ETH     C1    309          0     12.011
   618   opls_135     78    ETH     C2    310          0     12.011
   619   opls_140     78    ETH     H1    311          0      1.008
   620   opls_140     78    ETH     H2    311          0      1.008
   621   opls_140     78    ETH     H3    311          0      1.008
   622   opls_140     78    ETH     H4    312          0      1.008
   623   opls_140     78    ETH     H5    312          0      1.008
   624   opls_140     78    ETH     H6    312          0      1.008   ; qtot 0
; residue  79 ETH rtp ETH  q  0.0
   625   opls_135     79    ETH     C1    313          0     12.011
   626   opls_135     79    ETH     C2    314          0     12.011
   627   opls_140     79    ETH     H1    315          0      1.008
   628   opls_140     79    ETH     H2    315          0      1.008
   629   opls_140     79    ETH     H3    315          0      1.008
   630   opls_140     79    ETH     H4    316          0      1.008
   631   opls_140     79    ETH     H5    316          0      1.008
   632   opls_140     79    ETH     H6    316          0      1.008   ; qtot 0
; residue  80 ETH rtp ETH  q  0.0
   633   opls_135     80    ETH     C1    317          0     12.011
   634   opls_135     80    ETH     C2    318          0     12.011
   635   opls_140     80    ETH     H1    319          0      1.008
   636   opls_140     80    ETH     H2    319          0      1.008
   637   opls_140     80    ETH     H3    319          0      1.008
   638   opls_140     80    ETH     H4    320          0      1.008
   639   opls_140     80    ETH     H5    320          0      1.008
   640   opls_140     80    ETH     H6    320          0      1.008   ; qtot 0
; residue  81 ETH rtp ETH  q  0.0
   641   opls_135     81    ETH     C1    321          0     12.011
   642   opls_135     81    ETH     C2    322          0     12.011
   643   opls_140     81    ETH     H1    323          0      1.008
   644   opls_140     81    ETH     H2    323          0      1.008
   645   opls_140     81    ETH     H3    323          0      1.008
   646   opls_140     81    ETH     H4    324          0      1.008
   647   opls_140     81    ETH     H5    324          0      1.008
   648   opls_140     81    ETH     H6    324          0      1.008   ; qtot 0
; residue  82 ETH rtp ETH  q  0.0
   649   opls_135     82    ETH     C1    325          0     12.011
   650   opls_135     82    ETH     C2    326          0     12.011
   651   opls_140     82    ETH     H1    327          0      1.008
   652   opls_140     82    ETH     H2    327          0      1.008
   653   opls_140     82    ETH     H3    327          0      1.008
   654   opls_140     82    ETH     H4    328          0      1.008
   655   opls_140     82    ETH     H5    328          0      1.008
   656   opls_140     82    ETH     H6    328          0      1.008   ; qtot 0
; residue  83 ETH rtp ETH  q  0.0
   657   opls_135     83    ETH     C1    329          0     12.011
   658   opls_135     83    ETH     C2    330          0     12.011
   659   opls_140     83    ETH     H1    331          0      1.008
   660   opls_140     83    ETH     H2    331          0      1.008
   661   opls_140     83    ETH     H3    331          0      1.008
   662   opls_140     83    ETH     H4    332          0      1.008
   663   opls_140     83    ETH     H5    332          0      1.008
   664   opls_140     83    ETH     H6    332          0      1.008   ; qtot 0
; residue  84 ETH rtp ETH  q  0.0
   665   opls_135     84    ETH     C1    333          0     12.011
   666   opls_135     84    ETH     C2    334          0     12.011
   667   opls_140     84    ETH     H1    335          0      1.008
   668   opls_140     84    ETH     H2    335          0      1.008
   669   opls_140     84    ETH     H3    335          0      1.008
   670   opls_140     84    ETH     H4    336          0      1.008
   671   opls_140     84    ETH     H5    336          0      1.008
   672   opls_140     84    ETH     H6    336          0      1.008   ; qtot 0
; residue  85 ETH rtp ETH  q  0.0
   673   opls_135     85    ETH     C1    337          0     12.011
   674   opls_135     85    ETH     C2    338          0     12.011
   675   opls_140     85    ETH     H1    339          0      1.008
   676   opls_140     85    ETH     H2    339          0      1.008
   677   opls_140     85    ETH     H3    339          0      1.008
   678   opls_140     85    ETH     H4    340          0      1.008
   679   opls_140     85    ETH     H5    340          0      1.008
   680   opls_140     85    ETH     H6    340          0      1.008   ; qtot 0
; residue  86 ETH rtp ETH  q  0.0
   681   opls_135     86    ETH     C1    341          0     12.011
   682   opls_135     86    ETH     C2    342          0     12.011
   683   opls_140     86    ETH     H1    343          0      1.008
   684   opls_140     86    ETH     H2    343          0      1.008
   685   opls_140     86    ETH     H3    343          0      1.008
   686   opls_140     86    ETH     H4    344          0      1.008
   687   opls_140     86    ETH     H5    344          0      1.008
   688   opls_140     86    ETH     H6    344          0      1.008   ; qtot 0
; residue  87 ETH rtp ETH  q  0.0
   689   opls_135     87    ETH     C1    345          0     12.011
   690   opls_135     87    ETH     C2    346          0     12.011
   691   opls_140     87    ETH     H1    347          0      1.008
   692   opls_140     87    ETH     H2    347          0      1.008
   693   opls_140     87    ETH     H3    347          0      1.008
   694   opls_140     87    ETH     H4    348          0      1.008
   695   opls_140     87    ETH     H5    348          0      1.008
   696   opls_140     87    ETH     H6    348          0      1.008   ; qtot 0
; residue  88 ETH rtp ETH  q  0.0
   697   opls_135     88    ETH     C1    349          0     12.011
   698   opls_135     88    ETH     C2    350          0     12.011
   699   opls_140     88    ETH     H1    351          0      1.008
   700   opls_140     88    ETH     H2    351          0      1.008
   701   opls_140     88    ETH     H3    351          0      1.008
   702   opls_140     88    ETH     H4    352          0      1.008
   703   opls_140     88    ETH     H5    352          0      1.008
   704   opls_140     88    ETH     H6    352          0      1.008   ; qtot 0
; residue  89 ETH rtp ETH  q  0.0
   705   opls_135     89    ETH     C1    353          0     12.011
   706   opls_135     89    ETH     C2    354          0     12.011
   707   opls_140     89    ETH     H1    355          0      1.008
   708   opls_140     89    ETH     H2    355          0      1.008
   709   opls_140     89    ETH     H3    355          0      1.008
   710   opls_140     89    ETH     H4    356          0      1.008
   711   opls_140     89    ETH     H5    356          0      1.008
   712   opls_140     89    ETH     H6    356          0      1.008   ; qtot 0
; residue  90 ETH rtp ETH  q  0.0
   713   opls_135     90    ETH     C1    357          0     12.011
   714   opls_135     90    ETH     C2    358          0     12.011
   715   opls_140     90    ETH     H1    359          0      1.008
   716   opls_140     90    ETH     H2    359          0      1.008
   717   opls_140     90    ETH     H3    359          0      1.008
   718   opls_140     90    ETH     H4    360          0      1.008
   719   opls_140     90    ETH     H5    360          0      1.008
   720   opls_140     90    ETH     H6    360          0      1.008   ; qtot 0
; residue  91 ETH rtp ETH  q  0.0
   721   opls_135     91    ETH     C1    361          0     12.011
   722   opls_135     91    ETH     C2    362          0     12.011
   723   opls_140     91    ETH     H1    363          0      1.008
   724   opls_140     91    ETH     H2    363          0      1.008
   725   opls_140     91    ETH     H3    363          0      1.008
   726   opls_140     91    ETH     H4    364          0      1.008
   727   opls_140     91    ETH     H5    364          0      1.008
   728   opls_140     91    ETH     H6    364          0      1.008   ; qtot 0
; residue  92 ETH rtp ETH  q  0.0
   729   opls_135     92    ETH     C1    365          0     12.011
   730   opls_135     92    ETH     C2    366          0     12.011
   731   opls_140     92    ETH     H1    367          0      1.008
   732   opls_140     92    ETH     H2    367          0      1.008
   733   opls_140     92    ETH     H3    367          0      1.008
   734   opls_140     92    ETH     H4    368          0      1.008
   735   opls_140     92    ETH     H5    368          0      1.008
   736   opls_140     92    ETH     H6    368          0      1.008   ; qtot 0
; residue  93 ETH rtp ETH  q  0.0
   737   opls_135     93    ETH     C1    369          0     12.011
   738   opls_135     93    ETH     C2    370          0     12.011
   739   opls_140     93    ETH     H1    371          0      1.008
   740   opls_140     93    ETH     H2    371          0      1.008
   741   opls_140     93    ETH     H3    371          0      1.008
   742   opls_140     93    ETH     H4    372          0      1.008
   743   opls_140     93    ETH     H5    372          0      1.008
   744   opls_140     93    ETH     H6    372          0      1.008   ; qtot 0
; residue  94 ETH rtp ETH  q  0.0
   745   opls_135     94    ETH     C1    373          0     12.011
   746   opls_135     94    ETH     C2    374          0     12.011
   747   opls_140     94    ETH     H1    375          0      1.008
   748   opls_140     94    ETH     H2    375          0      1.008
   749   opls_140     94    ETH     H3    375          0      1.008
   750   opls_140     94    ETH     H4    376          0      1.008
   751   opls_140     94    ETH     H5    376          0      1.008
   752   opls_140     94    ETH     H6    376          0      1.008   ; qtot 0
; residue  95 ETH rtp ETH  q  0.0
   753   opls_135     95    ETH     C1    377          0     12.011
   754   opls_135     95    ETH     C2    378          0     12.011
   755   opls_140     95    ETH     H1    379          0      1.008
   756   opls_140     95    ETH     H2    379          0      1.008
   757   opls_140     95    ETH     H3    379          0      1.008
   758   opls_140     95    ETH     H4    380          0      1.008
   759   opls_140     95    ETH     H5    380          0      1.008
   760   opls_140     95    ETH     H6    380          0      1.008   ; qtot 0
; residue  96 ETH rtp ETH  q  0.0
   761   opls_135     96    ETH     C1    381          0     12.011
   762   opls_135     96    ETH     C2    382          0     12.011
   763   opls_140     96    ETH     H1    383          0      1.008
   764   opls_140     96    ETH     H2    383          0      1.008
   765   opls_140     96    ETH     H3    383          0      1.008
   766   opls_140     96    ETH     H4    384          0      1.008
   767   opls_140     96    ETH     H5    384          0      1.008
   768   opls_140     96    ETH     H6    384          0      1.008   ; qtot 0
; residue  97 ETH rtp ETH  q  0.0
   769   opls_135     97    ETH     C1    385          0     12.011
   770   opls_135     97    ETH     C2    386          0     12.011
   771   opls_140     97    ETH     H1    387          0      1.008
   772   opls_140     97    ETH     H2    387          0      1.008
   773   opls_140     97    ETH     H3    387          0      1.008
   774   opls_140     97    ETH     H4    388          0      1.008
   775   opls_140     97    ETH     H5    388          0      1.008
   776   opls_140     97    ETH     H6    388          0      1.008   ; qtot 0
; residue  98 ETH rtp ETH  q  0.0
   777   opls_135     98    ETH     C1    389          0     12.011
   778   opls_135     98    ETH     C2    390          0     12.011
   779   opls_140     98    ETH     H1    391          0      1.008
   780   opls_140     98    ETH     H2    391          0      1.008
   781   opls_140     98    ETH     H3    391          0      1.008
   782   opls_140     98    ETH     H4    392          0      1.008
   783   opls_140     98    ETH     H5    392          0      1.008
   784   opls_140     98    ETH     H6    392          0      1.008   ; qtot 0
; residue  99 ETH rtp ETH  q  0.0
   785   opls_135     99    ETH     C1    393          0     12.011
   786   opls_135     99    ETH     C2    394          0     12.011
   787   opls_140     99    ETH     H1    395          0      1.008
   788   opls_140     99    ETH     H2    395          0      1.008
   789   opls_140     99    ETH     H3    395          0      1.008
   790   opls_140     99    ETH     H4    396          0      1.008
   791   opls_140     99    ETH     H5    396          0      1.008
   792   opls_140     99    ETH     H6    396          0      1.008   ; qtot 0
; residue 100 ETH rtp ETH  q  0.0
   793   opls_135    100    ETH     C1    397          0     12.011
   794   opls_135    100    ETH     C2    398          0     12.011
   795   opls_140    100    ETH     H1    399          0      1.008
   796   opls_140    100    ETH     H2    399          0      1.008
   797   opls_140    100    ETH     H3    399          0      1.008
   798   opls_140    100    ETH     H4    400          0      1.008
   799   opls_140    100    ETH     H5    400          0      1.008
   800   opls_140    100    ETH     H6    400          0      1.008   ; qtot 0
; residue 101 ETH rtp ETH  q  0.0
   801   opls_135    101    ETH     C1    401          0     12.011
   802   opls_135    101    ETH     C2    402          0     12.011
   803   opls_140    101    ETH     H1    403          0      1.008
   804   opls_140    101    ETH     H2    403          0      1.008
   805   opls_140    101    ETH     H3    403          0      1.008
   806   opls_140    101    ETH     H4    404          0      1.008
   807   opls_140    101    ETH     H5    404          0      1.008
   808   opls_140    101    ETH     H6    404          0      1.008   ; qtot 0
; residue 102 ETH rtp ETH  q  0.0
   809   opls_135    102    ETH     C1    405          0     12.011
   810   opls_135    102    ETH     C2    406          0     12.011
   811   opls_140    102    ETH     H1    407          0      1.008
   812   opls_140    102    ETH     H2    407          0      1.008
   813   opls_140    102    ETH     H3    407          0      1.008
   814   opls_140    102    ETH     H4    408          0      1.008
   815   opls_140    102    ETH     H5    408          0      1.008
   816   opls_140    102    ETH     H6    408          0      1.008   ; qtot 0
; residue 103 ETH rtp ETH  q  0.0
   817   opls_135    103    ETH     C1    409          0     12.011
   818   opls_135    103    ETH     C2    410          0     12.011
   819   opls_140    103    ETH     H1    411          0      1.008
   820   opls_140    103    ETH     H2    411          0      1.008
   821   opls_140    103    ETH     H3    411          0      1.008
   822   opls_140    103    ETH     H4    412          0      1.008
   823   opls_140    103    ETH     H5    412          0      1.008
   824   opls_140    103    ETH     H6    412          0      1.008   ; qtot 0
; residue 104 ETH rtp ETH  q  0.0
   825   opls_135    104    ETH     C1    413          0     12.011
   826   opls_135    104    ETH     C2    414          0     12.011
   827   opls_140    104    ETH     H1    415          0      1.008
   828   opls_140    104    ETH     H2    415          0      1.008
   829   opls_140    104    ETH     H3    415          0      1.008
   830   opls_140    104    ETH     H4    416          0      1.008
   831   opls_140    104    ETH     H5    416          0      1.008
   832   opls_140    104    ETH     H6    416          0      1.008   ; qtot 0
; residue 105 ETH rtp ETH  q  0.0
   833   opls_135    105    ETH     C1    417          0     12.011
   834   opls_135    105    ETH     C2    418          0     12.011
   835   opls_140    105    ETH     H1    419          0      1.008
   836   opls_140    105    ETH     H2    419          0      1.008
   837   opls_140    105    ETH     H3    419          0      1.008
   838   opls_140    105    ETH     H4    420          0      1.008
   839   opls_140    105    ETH     H5    420          0      1.008
   840   opls_140    105    ETH     H6    420          0      1.008   ; qtot 0
; residue 106 ETH rtp ETH  q  0.0
   841   opls_135    106    ETH     C1    421          0     12.011
   842   opls_135    106    ETH     C2    422          0     12.011
   843   opls_140    106    ETH     H1    423          0      1.008
   844   opls_140    106    ETH     H2    423          0      1.008
   845   opls_140    106    ETH     H3    423          0      1.008
   846   opls_140    106    ETH     H4    424          0      1.008
   847   opls_140    106    ETH     H5    424          0      1.008
   848   opls_140    106    ETH     H6    424          0      1.008   ; qtot 0
; residue 107 ETH rtp ETH  q  0.0
   849   opls_135    107    ETH     C1    425          0     12.011
   850   opls_135    107    ETH     C2    426          0     12.011
   851   opls_140    107    ETH     H1    427          0      1.008
   852   opls_140    107    ETH     H2    427          0      1.008
   853   opls_140    107    ETH     H3    427          0      1.008
   854   opls_140    107    ETH     H4    428          0      1.008
   855   opls_140    107    ETH     H5    428          0      1.008
   856   opls_140    107    ETH     H6    428          0      1.008   ; qtot 0
; residue 108 ETH rtp ETH  q  0.0
   857   opls_135    108    ETH     C1    429          0     12.011
   858   opls_135    108    ETH     C2    430          0     12.011
   859   opls_140    108    ETH     H1    431          0      1.008
   860   opls_140    108    ETH     H2    431          0      1.008
   861   opls_140    108    ETH     H3    431          0      1.008
   862   opls_140    108    ETH     H4    432          0      1.008
   863   opls_140    108    ETH     H5    432          0      1.008
   864   opls_140    108    ETH     H6    432          0      1.008   ; qtot 0
; residue 109 ETH rtp ETH  q  0.0
   865   opls_135    109    ETH     C1    433          0     12.011
   866   opls_135    109    ETH     C2    434          0     12.011
   867   opls_140    109    ETH     H1    435          0      1.008
   868   opls_140    109    ETH     H2    435          0      1.008
   869   opls_140    109    ETH     H3    435          0      1.008
   870   opls_140    109    ETH     H4    436          0      1.008
   871   opls_140    109    ETH     H5    436          0      1.008
   872   opls_140    109    ETH     H6    436          0      1.008   ; qtot 0
; residue 110 ETH rtp ETH  q  0.0
   873   opls_135    110    ETH     C1    437          0     12.011
   874   opls_135    110    ETH     C2    438          0     12.011
   875   opls_140    110    ETH     H1    439          0      1.008
   876   opls_140    110    ETH     H2    439          0      1.008
   877   opls_140    110    ETH     H3    439          0      1.008
   878   opls_140    110    ETH     H4    440          0      1.008
   879   opls_140    110    ETH     H5    440          0      1.008
   880   opls_140    110    ETH     H6    440          0      1.008   ; qtot 0
; residue 111 ETH rtp ETH  q  0.0
   881   opls_135    111    ETH     C1    441          0     12.011
   882   opls_135    111    ETH     C2    442          0     12.011
   883   opls_140    111    ETH     H1    443          0      1.008
   884   opls_140    111    ETH     H2    443          0      1.008
   885   opls_140    111    ETH     H3    443          0      1.008
   886   opls_140    111    ETH     H4    444          0      1.008
   887   opls_140    111    ETH     H5    444          0      1.008
   888   opls_140    111    ETH     H6    444          0      1.008   ; qtot 0
; residue 112 ETH rtp ETH  q  0.0
   889   opls_135    112    ETH     C1    445          0     12.011
   890   opls_135    112    ETH     C2    446          0     12.011
   891   opls_140    112    ETH     H1    447          0      1.008
   892   opls_140    112    ETH     H2    447          0      1.008
   893   opls_140    112    ETH     H3    447          0      1.008
   894   opls_140    112    ETH     H4    448          0      1.008
   895   opls_140    112    ETH     H5    448          0      1.008
   896   opls_140    112    ETH     H6    448          0      1.008   ; qtot 0
; residue 113 ETH rtp ETH  q  0.0
   897   opls_135    113    ETH     C1    449          0     12.011
   898   opls_135    113    ETH     C2    450          0     12.011
   899   opls_140    113    ETH     H1    451          0      1.008
   900   opls_140    113    ETH     H2    451          0      1.008
   901   opls_140    113    ETH     H3    451          0      1.008
   902   opls_140    113    ETH     H4    452          0      1.008
   903   opls_140    113    ETH     H5    452          0      1.008
   904   opls_140    113    ETH     H6    452          0      1.008   ; qtot 0
; residue 114 ETH rtp ETH  q  0.0
   905   opls_135    114    ETH     C1    453          0     12.011
   906   opls_135    114    ETH     C2    454          0     12.011
   907   opls_140    114    ETH     H1    455          0      1.008
   908   opls_140    114    ETH     H2    455          0      1.008
   909   opls_140    114    ETH     H3    455          0      1.008
   910   opls_140    114    ETH     H4    456          0      1.008
   911   opls_140    114    ETH     H5    456          0      1.008
   912   opls_140    114    ETH     H6    456          0      1.008   ; qtot 0
; residue 115 ETH rtp ETH  q  0.0
   913   opls_135    115    ETH     C1    457          0     12.011
   914   opls_135    115    ETH     C2    458          0     12.011
   915   opls_140    115    ETH     H1    459          0      1.008
   916   opls_140    115    ETH     H2    459          0      1.008
   917   opls_140    115    ETH     H3    459          0      1.008
   918   opls_140    115    ETH     H4    460          0      1.008
   919   opls_140    115    ETH     H5    460          0      1.008
   920   opls_140    115    ETH     H6    460          0      1.008   ; qtot 0
; residue 116 ETH rtp ETH  q  0.0
   921   opls_135    116    ETH     C1    461          0     12.011
   922   opls_135    116    ETH     C2    462          0     12.011
   923   opls_140    116    ETH     H1    463          0      1.008
   924   opls_140    116    ETH     H2    463          0      1.008
   925   opls_140    116    ETH     H3    463          0      1.008
   926   opls_140    116    ETH     H4    464          0      1.008
   927   opls_140    116    ETH     H5    464          0      1.008
   928   opls_140    116    ETH     H6    464          0      1.008   ; qtot 0
; residue 117 ETH rtp ETH  q  0.0
   929   opls_135    117    ETH     C1    465          0     12.011
   930   opls_135    117    ETH     C2    466          0     12.011
   931   opls_140    117    ETH     H1    467          0      1.008
   932   opls_140    117    ETH     H2    467          0      1.008
   933   opls_140    117    ETH     H3    467          0      1.008
   934   opls_140    117    ETH     H4    468          0      1.008
   935   opls_140    117    ETH     H5    468          0      1.008
   936   opls_140    117    ETH     H6    468          0      1.008   ; qtot 0
; residue 118 ETH rtp ETH  q  0.0
   937   opls_135    118    ETH     C1    469          0     12.011
   938   opls_135    118    ETH     C2    470          0     12.011
   939   opls_140    118    ETH     H1    471          0      1.008
   940   opls_140    118    ETH     H2    471          0      1.008
   941   opls_140    118    ETH     H3    471          0      1.008
   942   opls_140    118    ETH     H4    472          0      1.008
   943   opls_140    118    ETH     H5    472          0      1.008
   944   opls_140    118    ETH     H6    472          0      1.008   ; qtot 0
; residue 119 ETH rtp ETH  q  0.0
   945   opls_135    119    ETH     C1    473          0     12.011
   946   opls_135    119    ETH     C2    474          0     12.011
   947   opls_140    119    ETH     H1    475          0      1.008
   948   opls_140    119    ETH     H2    475          0      1.008
   949   opls_140    119    ETH     H3    475          0      1.008
   950   opls_140    119    ETH     H4    476          0      1.008
   951   opls_140    119    ETH     H5    476          0      1.008
   952   opls_140    119    ETH     H6    476          0      1.008   ; qtot 0
; residue 120 ETH rtp ETH  q  0.0
   953   opls_135    120    ETH     C1    477          0     12.011
   954   opls_135    120    ETH     C2    478          0     12.011
   955   opls_140    120    ETH     H1    479          0      1.008
   956   opls_140    120    ETH     H2    479          0      1.008
   957   opls_140    120    ETH     H3    479          0      1.008
   958   opls_140    120    ETH     H4    480          0      1.008
   959   opls_140    120    ETH     H5    480          0      1.008
   960   opls_140    120    ETH     H6    480          0      1.008   ; qtot 0
; residue 121 ETH rtp ETH  q  0.0
   961   opls_135    121    ETH     C1    481          0     12.011
   962   opls_135    121    ETH     C2    482          0     12.011
   963   opls_140    121    ETH     H1    483          0      1.008
   964   opls_140    121    ETH     H2    483          0      1.008
   965   opls_140    121    ETH     H3    483          0      1.008
   966   opls_140    121    ETH     H4    484          0      1.008
   967   opls_140    121    ETH     H5    484          0      1.008
   968   opls_140    121    ETH     H6    484          0      1.008   ; qtot 0
; residue 122 ETH rtp ETH  q  0.0
   969   opls_135    122    ETH     C1    485          0     12.011
   970   opls_135    122    ETH     C2    486          0     12.011
   971   opls_140    122    ETH     H1    487          0      1.008
   972   opls_140    122    ETH     H2    487          0      1.008
   973   opls_140    122    ETH     H3    487          0      1.008
   974   opls_140    122    ETH     H4    488          0      1.008
   975   opls_140    122    ETH     H5    488          0      1.008
   976   opls_140    122    ETH     H6    488          0      1.008   ; qtot 0
; residue 123 ETH rtp ETH  q  0.0
   977   opls_135    123    ETH     C1    489          0     12.011
   978   opls_135    123    ETH     C2    490          0     12.011
   979   opls_140    123    ETH     H1    491          0      1.008
   980   opls_140    123    ETH     H2    491          0      1.008
   981   opls_140    123    ETH     H3    491          0      1.008
   982   opls_140    123    ETH     H4    492          0      1.008
   983   opls_140    123    ETH     H5    492          0      1.008
   984   opls_140    123    ETH     H6    492          0      1.008   ; qtot 0
; residue 124 ETH rtp ETH  q  0.0
   985   opls_135    124    ETH     C1    493          0     12.011
   986   opls_135    124    ETH     C2    494          0     12.011
   987   opls_140    124    ETH     H1    495          0      1.008
   988   opls_140    124    ETH     H2    495          0      1.008
   989   opls_140    124    ETH     H3    495          0      1.008
   990   opls_140    124    ETH     H4    496          0      1.008
   991   opls_140    124    ETH     H5    496          0      1.008
   992   opls_140    124    ETH     H6    496          0      1.008   ; qtot 0
; residue 125 ETH rtp ETH  q  0.0
   993   opls_135    125    ETH     C1    497          0     12.011
   994   opls_135    125    ETH     C2    498          0     12.011
   995   opls_140    125    ETH     H1    499          0      1.008
   996   opls_140    125    ETH     H2    499          0      1.008
   997   opls_140    125    ETH     H3    499          0      1.008
   998   opls_140    125    ETH     H4    500          0      1.008
   999   opls_140    125    ETH     H5    500          0      1.008
  1000   opls_140    125    ETH     H6    500          0      1.008   ; qtot 0

[ bonds ]
;  ai    aj funct            c0            c1            c2            c3
    1     2     1 
    1     3     1 
    1     4     1 
    1     5     1 
    2     6     1 
    2     7     1 
    2     8     1 
    9    10     1 
    9    11     1 
    9    12     1 
    9    13     1 
   10    14     1 
   10    15     1 
   10    16     1 
   17    18     1 
   17    19     1 
   17    20     1 
   17    21     1 
   18    22     1 
   18    23     1 
   18    24     1 
   25    26     1 
   25    27     1 
   25    28     1 
   25    29     1 
   26    30     1 
   26    31     1 
   26    32     1 
   33    34     1 
   33    35     1 
   33    36     1 
   33    37     1 
   34    38     1 
   34    39     1 
   34    40     1 
   41    42     1 
   41    43     1 
   41    44     1 
   41    45     1 
   42    46     1 
   42    47     1 
   42    48     1 
   49    50     1 
   49    51     1 
   49    52     1 
   49    53     1 
   50    54     1 
   50    55     1 
   50    56     1 
   57    58     1 
   57    59     1 
   57    60     1 
   57    61     1 
   58    62     1 
   58    63     1 
   58    64     1 
   65    66     1 
   65    67     1 
   65    68     1 
   65    69     1 
   66    70     1 
   66    71     1 
   66    72     1 
   73    74     1 
   73    75     1 
   73    76     1 
   73    77     1 
   74    78     1 
   74    79     1 
   74    80     1 
   81    82     1 
   81    83     1 
   81    84     1 
   81    85     1 
   82    86     1 
   82    87     1 
   82    88     1 
   89    90     1 
   89    91     1 
   89    92     1 
   89    93     1 
   90    94     1 
   90    95     1 
   90    96     1 
   97    98     1 
   97    99     1 
   97   100     1 
   97   101     1 
   98   102     1 
   98   103     1 
   98   104     1 
  105   106     1 
  105   107     1 
  105   108     1 
  105   109     1 
  106   110     1 
  106   111     1 
  106   112     1 
  113   114     1 
  113   115     1 
  113   116     1 
  113   117     1 
  114   118     1 
  114   119     1 
  114   120     1 
  121   122     1 
  121   123     1 
  121   124     1 
  121   125     1 
  122   126     1 
  122   127     1 
  122   128     1 
  129   130     1 
  129   131     1 
  129   132     1 
  129   133     1 
  130   134     1 
  130   135     1 
  130   136     1 
  137   138     1 
  137   139     1 
  137   140     1 
  137   141     1 
  138   142     1 
  138   143     1 
  138   144     1 
  145   146     1 
  145   147     1 
  145   148     1 
  145   149     1 
  146   150     1 
  146   151     1 
  146   152     1 
  153   154     1 
  153   155     1 
  153   156     1 
  153   157     1 
  154   158     1 
  154   159     1 
  154   160     1 
  161   162     1 
  161   163     1 
  161   164     1 
  161   165     1 
  162   166     1 
  162   167     1 
  162   168     1 
  169   170     1 
  169   171     1 
  169   172     1 
  169   173     1 
  170   174     1 
  170   175     1 
  170   176     1 
  177   178     1 
  177   179     1 
  177   180     1 
  177   181     1 
  178   182     1 
  178   183     1 
  178   184     1 
  185   186     1 
  185   187     1 
  185   188     1 
  185   189     1 
  186   190     1 
  186   191     1 
  186   192     1 
  193   194     1 
  193   195     1 
  193   196     1 
  193   197     1 
  194   198     1 
  194   199     1 
  194   200     1 
  201   202     1 
  201   203     1 
  201   204     1 
  201   205     1 
  202   206     1 
  202   207     1 
  202   208     1 
  209   210     1 
  209   211     1 
  209   212     1 
  209   213     1 
  210   214     1 
  210   215     1 
  210   216     1 
  217   218     1 
  217   219     1 
  217   220     1 
  217   221     1 
  218   222     1 
  218   223     1 
  218   224     1 
  225   226     1 
  225   227     1 
  225   228     1 
  225   229     1 
  226   230     1 
  226   231     1 
  226   232     1 
  233   234     1 
  233   235     1 
  233   236     1 
  233   237     1 
  234   238     1 
  234   239     1 
  234   240     1 
  241   242     1 
  241   243     1 
  241   244     1 
  241   245     1 
  242   246     1 
  242   247     1 
  242   248     1 
  249   250     1 
  249   251     1 
  249   252     1 
  249   253     1 
  250   254     1 
  250   255     1 
  250   256     1 
  257   258     1 
  257   259     1 
  257   260     1 
  257   261     1 
  258   262     1 
  258   263     1 
  258   264     1 
  265   266     1 
  265   267     1 
  265   268     1 
  265   269     1 
  266   270     1 
  266   271     1 
  266   272     1 
  273   274     1 
  273   275     1 
  273   276     1 
  273   277     1 
  274   278     1 
  274   279     1 
  274   280     1 
  281   282     1 
  281   283     1 
  281   284     1 
  281   285     1 
  282   286     1 
  282   287     1 
  282   288     1 
  289   290     1 
  289   291     1 
  289   292     1 
  289   293     1 
  290   294     1 
  290   295     1 
  290   296     1 
  297   298     1 
  297   299     1 
  297   300     1 
  297   301     1 
  298   302     1 
  298   303     1 
  298   304     1 
  305   306     1 
  305   307     1 
  305   308     1 
  305   309     1 
  306   310     1 
  306   311     1 
  306   312     1 
  313   314     1 
  313   315     1 
  313   316     1 
  313   317     1 
  314   318     1 
  314   319     1 
  314   320     1 
  321   322     1 
  321   323     1 
  321   324     1 
  321   325     1 
  322   326     1 
  322   327     1 
  322   328     1 
  329   330     1 
  329   331     1 
  329   332     1 
  329   333     1 
  330   334     1 
  330   335     1 
  330   336     1 
  337   338     1 
  337   339     1 
  337   340     1 
  337   341     1 
  338   342     1 
  338   343     1 
  338   344     1 
  345   346     1 
  345   347     1 
  345   348     1 
  345   349     1 
  346   350     1 
  346   351     1 
  346   352     1 
  353   354     1 
  353   355     1 
  353   356     1 
  353   357     1 
  354   358     1 
  354   359     1 
  354   360     1 
  361   362     1 
  361   363     1 
  361   364     1 
  361   365     1 
  362   366     1 
  362   367     1 
  362   368     1 
  369   370     1 
  369   371     1 
  369   372     1 
  369   373     1 
  370   374     1 
  370   375     1 
  370   376     1 
  377   378     1 
  377   379     1 
  377   380     1 
  377   381     1 
  378   382     1 
  378   383     1 
  378   384     1 
  385   386     1 
  385   387     1 
  385   388     1 
  385   389     1 
  386   390     1 
  386   391     1 
  386   392     1 
  393   394     1 
  393   395     1 
  393   396     1 
  393   397     1 
  394   398     1 
  394   399     1 
  394   400     1 
  401   402     1 
  401   403     1 
  401   404     1 
  401   405     1 
  402   406     1 
  402   407     1 
  402   408     1 
  409   410     1 
  409   411     1 
  409   412     1 
  409   413     1 
  410   414     1 
  410   415     1 
  410   416     1 
  417   418     1 
  417   419     1 
  417   420     1 
  417   421     1 
  418   422     1 
  418   423     1 
  418   424     1 
  425   426     1 
  425   427     1 
  425   428     1 
  425   429     1 
  426   430     1 
  426   431     1 
  426   432     1 
  433   434     1 
  433   435     1 
  433   436     1 
  433   437     1 
  434   438     1 
  434   439     1 
  434   440     1 
  441   442     1 
  441   443     1 
  441   444     1 
  441   445     1 
  442   446     1 
  442   447     1 
  442   448     1 
  449   450     1 
  449   451     1 
  449   452     1 
  449   453     1 
  450   454     1 
  450   455     1 
  450   456     1 
  457   458     1 
  457   459     1 
  457   460     1 
  457   461     1 
  458   462     1 
  458   463     1 
  458   464     1 
  465   466     1 
  465   467     1 
  465   468     1 
  465   469     1 
  466   470     1 
  466   471     1 
  466   472     1 
  473   474     1 
  473   475     1 
  473   476     1 
  473   477     1 
  474   478     1 
  474   479     1 
  474   480     1 
  481   482     1 
  481   483     1 
  481   484     1 
  481   485     1 
  482   486     1 
  482   487     1 
  482   488     1 
  489   490     1 
  489   491     1 
  489   492     1 
  489   493     1 
  490   494     1 
  490   495     1 
  490   496     1 
  497   498     1 
  497   499     1 
  497   500     1 
  497   501     1 
  498   502     1 
  498   503     1 
  498   504     1 
  505   506     1 
  505   507     1 
  505   508     1 
  505   509     1 
  506   510     1 
  506   511     1 
  506   512     1 
  513   514     1 
  513   515     1 
  513   516     1 
  513   517     1 
  514   518     1 
  514   519     1 
  514   520     1 
  521   522     1 
  521   523     1 
  521   524     1 
  521   525     1 
  522   526     1 
  522   527     1 
  522   528     1 
  529   530     1 
  529   531     1 
  529   532     1 
  529   533     1 
  530   534     1 
  530   535     1 
  530   536     1 
  537   538     1 
  537   539     1 
  537   540     1 
  537   541     1 
  538   542     1 
  538   543     1 
  538   544     1 
  545   546     1 
  545   547     1 
  545   548     1 
  545   549     1 
  546   550     1 
  546   551     1 
  546   552     1 
  553   554     1 
  553   555     1 
  553   556     1 
  553   557     1 
  554   558     1 
  554   559     1 
  554   560     1 
  561   562     1 
  561   563     1 
  561   564     1 
  561   565     1 
  562   566     1 
  562   567     1 
  562   568     1 
  569   570     1 
  569   571     1 
  569   572     1 
  569   573     1 
  570   574     1 
  570   575     1 
  570   576     1 
  577   578     1 
  577   579     1 
  577   580     1 
  577   581     1 
  578   582     1 
  578   583     1 
  578   584     1 
  585   586     1 
  585   587     1 
  585   588     1 
  585   589     1 
  586   590     1 
  586   591     1 
  586   592     1 
  593   594     1 
  593   595     1 
  593   596     1 
  593   597     1 
  594   598     1 
  594   599     1 
  594   600     1 
  601   602     1 
  601   603     1 
  601   604     1 
  601   605     1 
  602   606     1 
  602   607     1 
  602   608     1 
  609   610     1 
  609   611     1 
  609   612     1 
  609   613     1 
  610   614     1 
  610   615     1 
  610   616     1 
  617   618     1 
  617   619     1 
  617   620     1 
  617   621     1 
  618   622     1 
  618   623     1 
  618   624     1 
  625   626     1 
  625   627     1 
  625   628     1 
  625   629     1 
  626   630     1 
  626   631     1 
  626   632     1 
  633   634     1 
  633   635     1 
  633   636     1 
  633   637     1 
  634   638     1 
  634   639     1 
  634   640     1 
  641   642     1 
  641   643     1 
  641   644     1 
  641   645     1 
  642   646     1 
  642   647     1 
  642   648     1 
  649   650     1 
  649   651     1 
  649   652     1 
  649   653     1 
  650   654     1 
  650   655     1 
  650   656     1 
  657   658     1 
  657   659     1 
  657   660     1 
  657   661     1 
  658   662     1 
  658   663     1 
  658   664     1 
  665   666     1 
  665   667     1 
  665   668     1 
  665   669     1 
  666   670     1 
  666   671     1 
  666   672     1 
  673   674     1 
  673   675     1 
  673   676     1 
  673   677     1 
  674   678     1 
  674   679     1 
  674   680     1 
  681   682     1 
  681   683     1 
  681   684     1 
  681   685     1 
  682   686     1 
  682   687     1 
  682   688     1 
  689   690     1 
  689   691     1 
  689   692     1 
  689   693     1 
  690   694     1 
  690   695     1 
  690   696     1 
  697   698     1 
  697   699     1 
  697   700     1 
  697   701     1 
  698   702     1 
  698   703     1 
  698   704     1 
  705   706     1 
  705   707     1 
  705   708     1 
  705   709     1 
  706   710     1 
  706   711     1 
  706   712     1 
  713   714     1 
  713   715     1 
  713   716     1 
  713   717     1 
  714   718     1 
  714   719     1 
  714   720     1 
  721   722     1 
  721   723     1 
  721   724     1 
  721   725     1 
  722   726     1 
  722   727     1 
  722   728     1 
  729   730     1 
  729   731     1 
  729   732     1 
  729   733     1 
  730   734     1 
  730   735     1 
  730   736     1 
  737   738     1 
  737   739     1 
  737   740     1 
  737   741     1 
  738   742     1 
  738   743     1 
  738   744     1 
  745   746     1 
  745   747     1 
  745   748     1 
  745   749     1 
  746   750     1 
  746   751     1 
  746   752     1 
  753   754     1 
  753   755     1 
  753   756     1 
  753   757     1 
  754   758     1 
  754   759     1 
  754   760     1 
  761   762     1 
  761   763     1 
  761   764     1 
  761   765     1 
  762   766     1 
  762   767     1 
  762   768     1 
  769   770     1 
  769   771     1 
  769   772     1 
  769   773     1 
  770   774     1 
  770   775     1 
  770   776     1 
  777   778     1 
  777   779     1 
  777   780     1 
  777   781     1 
  778   782     1 
  778   783     1 
  778   784     1 
  785   786     1 
  785   787     1 
  785   788     1 
  785   789     1 
  786   790     1 
  786   791     1 
  786   792     1 
  793   794     1 
  793   795     1 
  793   796     1 
  793   797     1 
  794   798     1 
  794   799     1 
  794   800     1 
  801   802     1 
  801   803     1 
  801   804     1 
  801   805     1 
  802   806     1 
  802   807     1 
  802   808     1 
  809   810     1 
  809   811     1 
  809   812     1 
  809   813     1 
  810   814     1 
  810   815     1 
  810   816     1 
  817   818     1 
  817   819     1 
  817   820     1 
  817   821     1 
  818   822     1 
  818   823     1 
  818   824     1 
  825   826     1 
  825   827     1 
  825   828     1 
  825   829     1 
  826   830     1 
  826   831     1 
  826   832     1 
  833   834     1 
  833   835     1 
  833   836     1 
  833   837     1 
  834   838     1 
  834   839     1 
  834   840     1 
  841   842     1 
  841   843     1 
  841   844     1 
  841   845     1 
  842   846     1 
  842   847     1 
  842   848     1 
  849   850     1 
  849   851     1 
  849   852     1 
  849   853     1 
  850   854     1 
  850   855     1 
  850   856     1 
  857   858     1 
  857   859     1 
  857   860     1 
  857   861     1 
  858   862     1 
  858   863     1 
  858   864     1 
  865   866     1 
  865   867     1 
  865   868     1 
  865   869     1 
  866   870     1 
  866   871     1 
  866   872     1 
  873   874     1 
  873   875     1 
  873   876     1 
  873   877     1 
  874   878     1 
  874   879     1 
  874   880     1 
  881   882     1 
  881   883     1 
  881   884     1 
  881   885     1 
  882   886     1 
  882   887     1 
  882   888     1 
  889   890     1 
  889   891     1 
  889   892     1 
  889   893     1 
  890   894     1 
  890   895     1 
  890   896     1 
  897   898     1 
  897   899     1 
  897   900     1 
  897   901     1 
  898   902     1 
  898   903     1 
  898   904     1 
  905   906     1 
  905   907     1 
  905   908     1 
  905   909     1 
  906   910     1 
  906   911     1 
  906   912     1 
  913   914     1 
  913   915     1 
  913   916     1 
  913   917     1 
  914   918     1 
  914   919     1 
  914   920     1 
  921   922     1 
  921   923     1 
  921   924     1 
  921   925     1 
  922   926     1 
  922   927     1 
  922   928     1 
  929   930     1 
  929   931     1 
  929   932     1 
  929   933     1 
  930   934     1 
  930   935     1 
  930   936     1 
  937   938     1 
  937   939     1 
  937   940     1 
  937   941     1 
  938   942     1 
  938   943     1 
  938   944     1 
  945   946     1 
  945   947     1 
  945   948     1 
  945   949     1 
  946   950     1 
  946   951     1 
  946   952     1 
  953   954     1 
  953   955     1 
  953   956     1 
  953   957     1 
  954   958     1 
  954   959     1 
  954   960     1 
  961   962     1 
  961   963     1 
  961   964     1 
  961   965     1 
  962   966     1 
  962   967     1 
  962   968     1 
  969   970     1 
  969   971     1 
  969   972     1 
  969   973     1 
  970   974     1 
  970   975     1 
  970   976     1 
  977   978     1 
  977   979     1 
  977   980     1 
  977   981     1 
  978   982     1 
  978   983     1 
  978   984     1 
  985   986     1 
  985   987     1 
  985   988     1 
  985   989     1 
  986   990     1 
  986   991     1 
  986   992     1 
  993   994     1 
  993   995     1 
  993   996     1 
  993   997     1 
  994   998     1 
  994   999     1 
  994  1000     1 

[ pairs ]
;  ai    aj funct            c0            c1            c2            c3
    3     6     1 
    3     7     1 
    3     8     1 
    4     6     1 
    4     7     1 
    4     8     1 
    5     6     1 
    5     7     1 
    5     8     1 
   11    14     1 
   11    15     1 
   11    16     1 
   12    14     1 
   12    15     1 
   12    16     1 
   13    14     1 
   13    15     1 
   13    16     1 
   19    22     1 
   19    23     1 
   19    24     1 
   20    22     1 
   20    23     1 
   20    24     1 
   21    22     1 
   21    23     1 
   21    24     1 
   27    30     1 
   27    31     1 
   27    32     1 
   28    30     1 
   28    31     1 
   28    32     1 
   29    30     1 
   29    31     1 
   29    32     1 
   35    38     1 
   35    39     1 
   35    40     1 
   36    38     1 
   36    39     1 
   36    40     1 
   37    38     1 
   37    39     1 
   37    40     1 
   43    46     1 
   43    47     1 
   43    48     1 
   44    46     1 
   44    47     1 
   44    48     1 
   45    46     1 
   45    47     1 
   45    48     1 
   51    54     1 
   51    55     1 
   51    56     1 
   52    54     1 
   52    55     1 
   52    56     1 
   53    54     1 
   53    55     1 
   53    56     1 
   59    62     1 
   59    63     1 
   59    64     1 
   60    62     1 
   60    63     1 
   60    64     1 
   61    62     1 
   61    63     1 
   61    64     1 
   67    70     1 
   67    71     1 
   67    72     1 
   68    70     1 
   68    71     1 
   68    72     1 
   69    70     1 
   69    71     1 
   69    72     1 
   75    78     1 
   75    79     1 
   75    80     1 
   76    78     1 
   76    79     1 
   76    80     1 
   77    78     1 
   77    79     1 
   77    80     1 
   83    86     1 
   83    87     1 
   83    88     1 
   84    86     1 
   84    87     1 
   84    88     1 
   85    86     1 
   85    87     1 
   85    88     1 
   91    94     1 
   91    95     1 
   91    96     1 
   92    94     1 
   92    95     1 
   92    96     1 
   93    94     1 
   93    95     1 
   93    96     1 
   99   102     1 
   99   103     1 
   99   104     1 
  100   102     1 
  100   103     1 
  100   104     1 
  101   102     1 
  101   103     1 
  101   104     1 
  107   110     1 
  107   111     1 
  107   112     1 
  108   110     1 
  108   111     1 
  108   112     1 
  109   110     1 
  109   111     1 
  109   112     1 
  115   118     1 
  115   119     1 
  115   120     1 
  116   118     1 
  116   119     1 
  116   120     1 
  117   118     1 
  117   119     1 
  117   120     1 
  123   126     1 
  123   127     1 
  123   128     1 
  124   126     1 
  124   127     1 
  124   128     1 
  125   126     1 
  125   127     1 
  125   128     1 
  131   134     1 
  131   135     1 
  131   136     1 
  132   134     1 
  132   135     1 
  132   136     1 
  133   134     1 
  133   135     1 
  133   136     1 
  139   142     1 
  139   143     1 
  139   144     1 
  140   142     1 
  140   143     1 
  140   144     1 
  141   142     1 
  141   143     1 
  141   144     1 
  147   150     1 
  147   151     1 
  147   152     1 
  148   150     1 
  148   151     1 
  148   152     1 
  149   150     1 
  149   151     1 
  149   152     1 
  155   158     1 
  155   159     1 
  155   160     1 
  156   158     1 
  156   159     1 
  156   160     1 
  157   158     1 
  157   159     1 
  157   160     1 
  163   166     1 
  163   167     1 
  163   168     1 
  164   166     1 
  164   167     1 
  164   168     1 
  165   166     1 
  165   167     1 
  165   168     1 
  171   174     1 
  171   175     1 
  171   176     1 
  172   174     1 
  172   175     1 
  172   176     1 
  173   174     1 
  173   175     1 
  173   176     1 
  179   182     1 
  179   183     1 
  179   184     1 
  180   182     1 
  180   183     1 
  180   184     1 
  181   182     1 
  181   183     1 
  181   184     1 
  187   190     1 
  187   191     1 
  187   192     1 
  188   190     1 
  188   191     1 
  188   192     1 
  189   190     1 
  189   191     1 
  189   192     1 
  195   198     1 
  195   199     1 
  195   200     1 
  196   198     1 
  196   199     1 
  196   200     1 
  197   198     1 
  197   199     1 
  197   200     1 
  203   206     1 
  203   207     1 
  203   208     1 
  204   206     1 
  204   207     1 
  204   208     1 
  205   206     1 
  205   207     1 
  205   208     1 
  211   214     1 
  211   215     1 
  211   216     1 
  212   214     1 
  212   215     1 
  212   216     1 
  213   214     1 
  213   215     1 
  213   216     1 
  219   222     1 
  219   223     1 
  219   224     1 
  220   222     1 
  220   223     1 
  220   224     1 
  221   222     1 
  221   223     1 
  221   224     1 
  227   230     1 
  227   231     1 
  227   232     1 
  228   230     1 
  228   231     1 
  228   232     1 
  229   230     1 
  229   231     1 
  229   232     1 
  235   238     1 
  235   239     1 
  235   240     1 
  236   238     1 
  236   239     1 
  236   240     1 
  237   238     1 
  237   239     1 
  237   240     1 
  243   246     1 
  243   247     1 
  243   248     1 
  244   246     1 
  244   247     1 
  244   248     1 
  245   246     1 
  245   247     1 
  245   248     1 
  251   254     1 
  251   255     1 
  251   256     1 
  252   254     1 
  252   255     1 
  252   256     1 
  253   254     1 
  253   255     1 
  253   256     1 
  259   262     1 
  259   263     1 
  259   264     1 
  260   262     1 
  260   263     1 
  260   264     1 
  261   262     1 
  261   263     1 
  261   264     1 
  267   270     1 
  267   271     1 
  267   272     1 
  268   270     1 
  268   271     1 
  268   272     1 
  269   270     1 
  269   271     1 
  269   272     1 
  275   278     1 
  275   279     1 
  275   280     1 
  276   278     1 
  276   279     1 
  276   280     1 
  277   278     1 
  277   279     1 
  277   280     1 
  283   286     1 
  283   287     1 
  283   288     1 
  284   286     1 
  284   287     1 
  284   288     1 
  285   286     1 
  285   287     1 
  285   288     1 
  291   294     1 
  291   295     1 
  291   296     1 
  292   294     1 
  292   295     1 
  292   296     1 
  293   294     1 
  293   295     1 
  293   296     1 
  299   302     1 
  299   303     1 
  299   304     1 
  300   302     1 
  300   303     1 
  300   304     1 
  301   302     1 
  301   303     1 
  301   304     1 
  307   310     1 
  307   311     1 
  307   312     1 
  308   310     1 
  308   311     1 
  308   312     1 
  309   310     1 
  309   311     1 
  309   312     1 
  315   318     1 
  315   319     1 
  315   320     1 
  316   318     1 
  316   319     1 
  316   320     1 
  317   318     1 
  317   319     1 
  317   320     1 
  323   326     1 
  323   327     1 
  323   328     1 
  324   326     1 
  324   327     1 
  324   328     1 
  325   326     1 
  325   327     1 
  325   328     1 
  331   334     1 
  331   335     1 
  331   336     1 
  332   334     1 
  332   335     1 
  332   336     1 
  333   334     1 
  333   335     1 
  333   336     1 
  339   342     1 
  339   343     1 
  339   344     1 
  340   342     1 
  340   343     1 
  340   344     1 
  341   342     1 
  341   343     1 
  341   344     1 
  347   350     1 
  347   351     1 
  347   352     1 
  348   350     1 
  348   351     1 
  348   352     1 
  349   350     1 
  349   351     1 
  349   352     1 
  355   358     1 
  355   359     1 
  355   360     1 
  356   358     1 
  356   359     1 
  356   360     1 
  357   358     1 
  357   359     1 
  357   360     1 
  363   366     1 
  363   367     1 
  363   368     1 
  364   366     1 
  364   367     1 
  364   368     1 
  365   366     1 
  365   367     1 
  365   368     1 
  371   374     1 
  371   375     1 
  371   376     1 
  372   374     1 
  372   375     1 
  372   376     1 
  373   374     1 
  373   375     1 
  373   376     1 
  379   382     1 
  379   383     1 
  379   384     1 
  380   382     1 
  380   383     1 
  380   384     1 
  381   382     1 
  381   383     1 
  381   384     1 
  387   390     1 
  387   391     1 
  387   392     1 
  388   390     1 
  388   391     1 
  388   392     1 
  389   390     1 
  389   391     1 
  389   392     1 
  395   398     1 
  395   399     1 
  395   400     1 
  396   398     1 
  396   399     1 
  396   400     1 
  397   398     1 
  397   399     1 
  397   400     1 
  403   406     1 
  403   407     1 
  403   408     1 
  404   406     1 
  404   407     1 
  404   408     1 
  405   406     1 
  405   407     1 
  405   408     1 
  411   414     1 
  411   415     1 
  411   416     1 
  412   414     1 
  412   415     1 
  412   416     1 
  413   414     1 
  413   415     1 
  413   416     1 
  419   422     1 
  419   423     1 
  419   424     1 
  420   422     1 
  420   423     1 
  420   424     1 
  421   422     1 
  421   423     1 
  421   424     1 
  427   430     1 
  427   431     1 
  427   432     1 
  428   430     1 
  428   431     1 
  428   432     1 
  429   430     1 
  429   431     1 
  429   432     1 
  435   438     1 
  435   439     1 
  435   440     1 
  436   438     1 
  436   439     1 
  436   440     1 
  437   438     1 
  437   439     1 
  437   440     1 
  443   446     1 
  443   447     1 
  443   448     1 
  444   446     1 
  444   447     1 
  444   448     1 
  445   446     1 
  445   447     1 
  445   448     1 
  451   454     1 
  451   455     1 
  451   456     1 
  452   454     1 
  452   455     1 
  452   456     1 
  453   454     1 
  453   455     1 
  453   456     1 
  459   462     1 
  459   463     1 
  459   464     1 
  460   462     1 
  460   463     1 
  460   464     1 
  461   462     1 
  461   463     1 
  461   464     1 
  467   470     1 
  467   471     1 
  467   472     1 
  468   470     1 
  468   471     1 
  468   472     1 
  469   470     1 
  469   471     1 
  469   472     1 
  475   478     1 
  475   479     1 
  475   480     1 
  476   478     1 
  476   479     1 
  476   480     1 
  477   478     1 
  477   479     1 
  477   480     1 
  483   486     1 
  483   487     1 
  483   488     1 
  484   486     1 
  484   487     1 
  484   488     1 
  485   486     1 
  485   487     1 
  485   488     1 
  491   494     1 
  491   495     1 
  491   496     1 
  492   494     1 
  492   495     1 
  492   496     1 
  493   494     1 
  493   495     1 
  493   496     1 
  499   502     1 
  499   503     1 
  499   504     1 
  500   502     1 
  500   503     1 
  500   504     1 
  501   502     1 
  501   503     1 
  501   504     1 
  507   510     1 
  507   511     1 
  507   512     1 
  508   510     1 
  508   511     1 
  508   512     1 
  509   510     1 
  509   511     1 
  509   512     1 
  515   518     1 
  515   519     1 
  515   520     1 
  516   518     1 
  516   519     1 
  516   520     1 
  517   518     1 
  517   519     1 
  517   520     1 
  523   526     1 
  523   527     1 
  523   528     1 
  524   526     1 
  524   527     1 
  524   528     1 
  525   526     1 
  525   527     1 
  525   528     1 
  531   534     1 
  531   535     1 
  531   536     1 
  532   534     1 
  532   535     1 
  532   536     1 
  533   534     1 
  533   535     1 
  533   536     1 
  539   542     1 
  539   543     1 
  539   544     1 
  540   542     1 
  540   543     1 
  540   544     1 
  541   542     1 
  541   543     1 
  541   544     1 
  547   550     1 
  547   551     1 
  547   552     1 
  548   550     1 
  548   551     1 
  548   552     1 
  549   550     1 
  549   551     1 
  549   552     1 
  555   558     1 
  555   559     1 
  555   560     1 
  556   558     1 
  556   559     1 
  556   560     1 
  557   558     1 
  557   559     1 
  557   560     1 
  563   566     1 
  563   567     1 
  563   568     1 
  564   566     1 
  564   567     1 
  564   568     1 
  565   566     1 
  565   567     1 
  565   568     1 
  571   574     1 
  571   575     1 
  571   576     1 
  572   574     1 
  572   575     1 
  572   576     1 
  573   574     1 
  573   575     1 
  573   576     1 
  579   582     1 
  579   583     1 
  579   584     1 
  580   582     1 
  580   583     1 
  580   584     1 
  581   582     1 
  581   583     1 
  581   584     1 
  587   590     1 
  587   591     1 
  587   592     1 
  588   590     1 
  588   591     1 
  588   592     1 
  589   590     1 
  589   591     1 
  589   592     1 
  595   598     1 
  595   599     1 
  595   600     1 
  596   598     1 
  596   599     1 
  596   600     1 
  597   598     1 
  597   599     1 
  597   600     1 
  603   606     1 
  603   607     1 
  603   608     1 
  604   606     1 
  604   607     1 
  604   608     1 
  605   606     1 
  605   607     1 
  605   608     1 
  611   614     1 
  611   615     1 
  611   616     1 
  612   614     1 
  612   615     1 
  612   616     1 
  613   614     1 
  613   615     1 
  613   616     1 
  619   622     1 
  619   623     1 
  619   624     1 
  620   622     1 
  620   623     1 
  620   624     1 
  621   622     1 
  621   623     1 
  621   624     1 
  627   630     1 
  627   631     1 
  627   632     1 
  628   630     1 
  628   631     1 
  628   632     1 
  629   630     1 
  629   631     1 
  629   632     1 
  635   638     1 
  635   639     1 
  635   640     1 
  636   638     1 
  636   639     1 
  636   640     1 
  637   638     1 
  637   639     1 
  637   640     1 
  643   646     1 
  643   647     1 
  643   648     1 
  644   646     1 
  644   647     1 
  644   648     1 
  645   646     1 
  645   647     1 
  645   648     1 
  651   654     1 
  651   655     1 
  651   656     1 
  652   654     1 
  652   655     1 
  652   656     1 
  653   654     1 
  653   655     1 
  653   656     1 
  659   662     1 
  659   663     1 
  659   664     1 
  660   662     1 
  660   663     1 
  660   664     1 
  661   662     1 
  661   663     1 
  661   664     1 
  667   670     1 
  667   671     1 
  667   672     1 
  668   670     1 
  668   671     1 
  668   672     1 
  669   670     1 
  669   671     1 
  669   672     1 
  675   678     1 
  675   679     1 
  675   680     1 
  676   678     1 
  676   679     1 
  676   680     1 
  677   678     1 
  677   679     1 
  677   680     1 
  683   686     1 
  683   687     1 
  683   688     1 
  684   686     1 
  684   687     1 
  684   688     1 
  685   686     1 
  685   687     1 
  685   688     1 
  691   694     1 
  691   695     1 
  691   696     1 
  692   694     1 
  692   695     1 
  692   696     1 
  693   694     1 
  693   695     1 
  693   696     1 
  699   702     1 
  699   703     1 
  699   704     1 
  700   702     1 
  700   703     1 
  700   704     1 
  701   702     1 
  701   703     1 
  701   704     1 
  707   710     1 
  707   711     1 
  707   712     1 
  708   710     1 
  708   711     1 
  708   712     1 
  709   710     1 
  709   711     1 
  709   712     1 
  715   718     1 
  715   719     1 
  715   720     1 
  716   718     1 
  716   719     1 
  716   720     1 
  717   718     1 
  717   719     1 
  717   720     1 
  723   726     1 
  723   727     1 
  723   728     1 
  724   726     1 
  724   727     1 
  724   728     1 
  725   726     1 
  725   727     1 
  725   728     1 
  731   734     1 
  731   735     1 
  731   736     1 
  732   734     1 
  732   735     1 
  732   736     1 
  733   734     1 
  733   735     1 
  733   736     1 
  739   742     1 
  739   743     1 
  739   744     1 
  740   742     1 
  740   743     1 
  740   744     1 
  741   742     1 
  741   743     1 
  741   744     1 
  747   750     1 
  747   751     1 
  747   752     1 
  748   750     1 
  748   751     1 
  748   752     1 
  749   750     1 
  749   751     1 
  749   752     1 
  755   758     1 
  755   759     1 
  755   760     1 
  756   758     1 
  756   759     1 
  756   760     1 
  757   758     1 
  757   759     1 
  757   760     1 
  763   766     1 
  763   767     1 
  763   768     1 
  764   766     1 
  764   767     1 
  764   768     1 
  765   766     1 
  765   767     1 
  765   768     1 
  771   774     1 
  771   775     1 
  771   776     1 
  772   774     1 
  772   775     1 
  772   776     1 
  773   774     1 
  773   775     1 
  773   776     1 
  779   782     1 
  779   783     1 
  779   784     1 
  780   782     1 
  780   783     1 
  780   784     1 
  781   782     1 
  781   783     1 
  781   784     1 
  787   790     1 
  787   791     1 
  787   792     1 
  788   790     1 
  788   791     1 
  788   792     1 
  789   790     1 
  789   791     1 
  789   792     1 
  795   798     1 
  795   799     1 
  795   800     1 
  796   798     1 
  796   799     1 
  796   800     1 
  797   798     1 
  797   799     1 
  797   800     1 
  803   806     1 
  803   807     1 
  803   808     1 
  804   806     1 
  804   807     1 
  804   808     1 
  805   806     1 
  805   807     1 
  805   808     1 
  811   814     1 
  811   815     1 
  811   816     1 
  812   814     1 
  812   815     1 
  812   816     1 
  813   814     1 
  813   815     1 
  813   816     1 
  819   822     1 
  819   823     1 
  819   824     1 
  820   822     1 
  820   823     1 
  820   824     1 
  821   822     1 
  821   823     1 
  821   824     1 
  827   830     1 
  827   831     1 
  827   832     1 
  828   830     1 
  828   831     1 
  828   832     1 
  829   830     1 
  829   831     1 
  829   832     1 
  835   838     1 
  835   839     1 
  835   840     1 
  836   838     1 
  836   839     1 
  836   840     1 
  837   838     1 
  837   839     1 
  837   840     1 
  843   846     1 
  843   847     1 
  843   848     1 
  844   846     1 
  844   847     1 
  844   848     1 
  845   846     1 
  845   847     1 
  845   848     1 
  851   854     1 
  851   855     1 
  851   856     1 
  852   854     1 
  852   855     1 
  852   856     1 
  853   854     1 
  853   855     1 
  853   856     1 
  859   862     1 
  859   863     1 
  859   864     1 
  860   862     1 
  860   863     1 
  860   864     1 
  861   862     1 
  861   863     1 
  861   864     1 
  867   870     1 
  867   871     1 
  867   872     1 
  868   870     1 
  868   871     1 
  868   872     1 
  869   870     1 
  869   871     1 
  869   872     1 
  875   878     1 
  875   879     1 
  875   880     1 
  876   878     1 
  876   879     1 
  876   880     1 
  877   878     1 
  877   879     1 
  877   880     1 
  883   886     1 
  883   887     1 
  883   888     1 
  884   886     1 
  884   887     1 
  884   888     1 
  885   886     1 
  885   887     1 
  885   888     1 
  891   894     1 
  891   895     1 
  891   896     1 
  892   894     1 
  892   895     1 
  892   896     1 
  893   894     1 
  893   895     1 
  893   896     1 
  899   902     1 
  899   903     1 
  899   904     1 
  900   902     1 
  900   903     1 
  900   904     1 
  901   902     1 
  901   903     1 
  901   904     1 
  907   910     1 
  907   911     1 
  907   912     1 
  908   910     1 
  908   911     1 
  908   912     1 
  909   910     1 
  909   911     1 
  909   912     1 
  915   918     1 
  915   919     1 
  915   920     1 
  916   918     1 
  916   919     1 
  916   920     1 
  917   918     1 
  917   919     1 
  917   920     1 
  923   926     1 
  923   927     1 
  923   928     1 
  924   926     1 
  924   927     1 
  924   928     1 
  925   926     1 
  925   927     1 
  925   928     1 
  931   934     1 
  931   935     1 
  931   936     1 
  932   934     1 
  932   935     1 
  932   936     1 
  933   934     1 
  933   935     1 
  933   936     1 
  939   942     1 
  939   943     1 
  939   944     1 
  940   942     1 
  940   943     1 
  940   944     1 
  941   942     1 
  941   943     1 
  941   944     1 
  947   950     1 
  947   951     1 
  947   952     1 
  948   950     1 
  948   951     1 
  948   952     1 
  949   950     1 
  949   951     1 
  949   952     1 
  955   958     1 
  955   959     1 
  955   960     1 
  956   958     1 
  956   959     1 
  956   960     1 
  957   958     1 
  957   959     1 
  957   960     1 
  963   966     1 
  963   967     1 
  963   968     1 
  964   966     1 
  964   967     1 
  964   968     1 
  965   966     1 
  965   967     1 
  965   968     1 
  971   974     1 
  971   975     1 
  971   976     1 
  972   974     1 
  972   975     1 
  972   976     1 
  973   974     1 
  973   975     1 
  973   976     1 
  979   982     1 
  979   983     1 
  979   984     1 
  980   982     1 
  980   983     1 
  980   984     1 
  981   982     1 
  981   983     1 
  981   984     1 
  987   990     1 
  987   991     1 
  987   992     1 
  988   990     1 
  988   991     1 
  988   992     1 
  989   990     1 
  989   991     1 
  989   992     1 
  995   998     1 
  995   999     1 
  995  1000     1 
  996   998     1 
  996   999     1 
  996  1000     1 
  997   998     1 
  997   999     1 
  997  1000     1 

[ angles ]
;  ai    aj    ak funct            c0            c1            c2            c3
    2     1     3     1 
    2     1     4     1 
    2     1     5     1 
    3     1     4     1 
    3     1     5     1 
    4     1     5     1 
    1     2     6     1 
    1     2     7     1 
    1     2     8     1 
    6     2     7     1 
    6     2     8     1 
    7     2     8     1 
   10     9    11     1 
   10     9    12     1 
   10     9    13     1 
   11     9    12     1 
   11     9    13     1 
   12     9    13     1 
    9    10    14     1 
    9    10    15     1 
    9    10    16     1 
   14    10    15     1 
   14    10    16     1 
   15    10    16     1 
   18    17    19     1 
   18    17    20     1 
   18    17    21     1 
   19    17    20     1 
   19    17    21     1 
   20    17    21     1 
   17    18    22     1 
   17    18    23     1 
   17    18    24     1 
   22    18    23     1 
   22    18    24     1 
   23    18    24     1 
   26    25    27     1 
   26    25    28     1 
   26    25    29     1 
   27    25    28     1 
   27    25    29     1 
   28    25    29     1 
   25    26    30     1 
   25    26    31     1 
   25    26    32     1 
   30    26    31     1 
   30    26    32     1 
   31    26    32     1 
   34    33    35     1 
   34    33    36     1 
   34    33    37     1 
   35    33    36     1 
   35    33    37     1 
   36    33    37     1 
   33    34    38     1 
   33    34    39     1 
   33    34    40     1 
   38    34    39     1 
   38    34    40     1 
   39    34    40     1 
   42    41    43     1 
   42    41    44     1 
   42    41    45     1 
   43    41    44     1 
   43    41    45     1 
   44    41    45     1 
   41    42    46     1 
   41    42    47     1 
   41    42    48     1 
   46    42    47     1 
   46    42    48     1 
   47    42    48     1 
   50    49    51     1 
   50    49    52     1 
   50    49    53     1 
   51    49    52     1 
   51    49    53     1 
   52    49    53     1 
   49    50    54     1 
   49    50    55     1 
   49    50    56     1 
   54    50    55     1 
   54    50    56     1 
   55    50    56     1 
   58    57    59     1 
   58    57    60     1 
   58    57    61     1 
   59    57    60     1 
   59    57    61     1 
   60    57    61     1 
   57    58    62     1 
   57    58    63     1 
   57    58    64     1 
   62    58    63     1 
   62    58    64     1 
   63    58    64     1 
   66    65    67     1 
   66    65    68     1 
   66    65    69     1 
   67    65    68     1 
   67    65    69     1 
   68    65    69     1 
   65    66    70     1 
   65    66    71     1 
   65    66    72     1 
   70    66    71     1 
   70    66    72     1 
   71    66    72     1 
   74    73    75     1 
   74    73    76     1 
   74    73    77     1 
   75    73    76     1 
   75    73    77     1 
   76    73    77     1 
   73    74    78     1 
   73    74    79     1 
   73    74    80     1 
   78    74    79     1 
   78    74    80     1 
   79    74    80     1 
   82    81    83     1 
   82    81    84     1 
   82    81    85     1 
   83    81    84     1 
   83    81    85     1 
   84    81    85     1 
   81    82    86     1 
   81    82    87     1 
   81    82    88     1 
   86    82    87     1 
   86    82    88     1 
   87    82    88     1 
   90    89    91     1 
   90    89    92     1 
   90    89    93     1 
   91    89    92     1 
   91    89    93     1 
   92    89    93     1 
   89    90    94     1 
   89    90    95     1 
   89    90    96     1 
   94    90    95     1 
   94    90    96     1 
   95    90    96     1 
   98    97    99     1 
   98    97   100     1 
   98    97   101     1 
   99    97   100     1 
   99    97   101     1 
  100    97   101     1 
   97    98   102     1 
   97    98   103     1 
   97    98   104     1 
  102    98   103     1 
  102    98   104     1 
  103    98   104     1 
  106   105   107     1 
  106   105   108     1 
  106   105   109     1 
  107   105   108     1 
  107   105   109     1 
  108   105   109     1 
  105   106   110     1 
  105   106   111     1 
  105   106   112     1 
  110   106   111     1 
  110   106   112     1 
  111   106   112     1 
  114   113   115     1 
  114   113   116     1 
  114   113   117     1 
  115   113   116     1 
  115   113   117     1 
  116   113   117     1 
  113   114   118     1 
  113   114   119     1 
  113   114   120     1 
  118   114   119     1 
  118   114   120     1 
  119   114   120     1 
  122   121   123     1 
  122   121   124     1 
  122   121   125     1 
  123   121   124     1 
  123   121   125     1 
  124   121   125     1 
  121   122   126     1 
  121   122   127     1 
  121   122   128     1 
  126   122   127     1 
  126   122   128     1 
  127   122   128     1 
  130   129   131     1 
  130   129   132     1 
  130   129   133     1 
  131   129   132     1 
  131   129   133     1 
  132   129   133     1 
  129   130   134     1 
  129   130   135     1 
  129   130   136     1 
  134   130   135     1 
  134   130   136     1 
  135   130   136     1 
  138   137   139     1 
  138   137   140     1 
  138   137   141     1 
  139   137   140     1 
  139   137   141     1 
  140   137   141     1 
  137   138   142     1 
  137   138   143     1 
  137   138   144     1 
  142   138   143     1 
  142   138   144     1 
  143   138   144     1 
  146   145   147     1 
  146   145   148     1 
  146   145   149     1 
  147   145   148     1 
  147   145   149     1 
  148   145   149     1 
  145   146   150     1 
  145   146   151     1 
  145   146   152     1 
  150   146   151     1 
  150   146   152     1 
  151   146   152     1 
  154   153   155     1 
  154   153   156     1 
  154   153   157     1 
  155   153   156     1 
  155   153   157     1 
  156   153   157     1 
  153   154   158     1 
  153   154   159     1 
  153   154   160     1 
  158   154   159     1 
  158   154   160     1 
  159   154   160     1 
  162   161   163     1 
  162   161   164     1 
  162   161   165     1 
  163   161   164     1 
  163   161   165     1 
  164   161   165     1 
  161   162   166     1 
  161   162   167     1 
  161   162   168     1 
  166   162   167     1 
  166   162   168     1 
  167   162   168     1 
  170   169   171     1 
  170   169   172     1 
  170   169   173     1 
  171   169   172     1 
  171   169   173     1 
  172   169   173     1 
  169   170   174     1 
  169   170   175     1 
  169   170   176     1 
  174   170   175     1 
  174   170   176     1 
  175   170   176     1 
  178   177   179     1 
  178   177   180     1 
  178   177   181     1 
  179   177   180     1 
  179   177   181     1 
  180   177   181     1 
  177   178   182     1 
  177   178   183     1 
  177   178   184     1 
  182   178   183     1 
  182   178   184     1 
  183   178   184     1 
  186   185   187     1 
  186   185   188     1 
  186   185   189     1 
  187   185   188     1 
  187   185   189     1 
  188   185   189     1 
  185   186   190     1 
  185   186   191     1 
  185   186   192     1 
  190   186   191     1 
  190   186   192     1 
  191   186   192     1 
  194   193   195     1 
  194   193   196     1 
  194   193   197     1 
  195   193   196     1 
  195   193   197     1 
  196   193   197     1 
  193   194   198     1 
  193   194   199     1 
  193   194   200     1 
  198   194   199     1 
  198   194   200     1 
  199   194   200     1 
  202   201   203     1 
  202   201   204     1 
  202   201   205     1 
  203   201   204     1 
  203   201   205     1 
  204   201   205     1 
  201   202   206     1 
  201   202   207     1 
  201   202   208     1 
  206   202   207     1 
  206   202   208     1 
  207   202   208     1 
  210   209   211     1 
  210   209   212     1 
  210   209   213     1 
  211   209   212     1 
  211   209   213     1 
  212   209   213     1 
  209   210   214     1 
  209   210   215     1 
  209   210   216     1 
  214   210   215     1 
  214   210   216     1 
  215   210   216     1 
  218   217   219     1 
  218   217   220     1 
  218   217   221     1 
  219   217   220     1 
  219   217   221     1 
  220   217   221     1 
  217   218   222     1 
  217   218   223     1 
  217   218   224     1 
  222   218   223     1 
  222   218   224     1 
  223   218   224     1 
  226   225   227     1 
  226   225   228     1 
  226   225   229     1 
  227   225   228     1 
  227   225   229     1 
  228   225   229     1 
  225   226   230     1 
  225   226   231     1 
  225   226   232     1 
  230   226   231     1 
  230   226   232     1 
  231   226   232     1 
  234   233   235     1 
  234   233   236     1 
  234   233   237     1 
  235   233   236     1 
  235   233   237     1 
  236   233   237     1 
  233   234   238     1 
  233   234   239     1 
  233   234   240     1 
  238   234   239     1 
  238   234   240     1 
  239   234   240     1 
  242   241   243     1 
  242   241   244     1 
  242   241   245     1 
  243   241   244     1 
  243   241   245     1 
  244   241   245     1 
  241   242   246     1 
  241   242   247     1 
  241   242   248     1 
  246   242   247     1 
  246   242   248     1 
  247   242   248     1 
  250   249   251     1 
  250   249   252     1 
  250   249   253     1 
  251   249   252     1 
  251   249   253     1 
  252   249   253     1 
  249   250   254     1 
  249   250   255     1 
  249   250   256     1 
  254   250   255     1 
  254   250   256     1 
  255   250   256     1 
  258   257   259     1 
  258   257   260     1 
  258   257   261     1 
  259   257   260     1 
  259   257   261     1 
  260   257   261     1 
  257   258   262     1 
  257   258   263     1 
  257   258   264     1 
  262   258   263     1 
  262   258   264     1 
  263   258   264     1 
  266   265   267     1 
  266   265   268     1 
  266   265   269     1 
  267   265   268     1 
  267   265   269     1 
  268   265   269     1 
  265   266   270     1 
  265   266   271     1 
  265   266   272     1 
  270   266   271     1 
  270   266   272     1 
  271   266   272     1 
  274   273   275     1 
  274   273   276     1 
  274   273   277     1 
  275   273   276     1 
  275   273   277     1 
  276   273   277     1 
  273   274   278     1 
  273   274   279     1 
  273   274   280     1 
  278   274   279     1 
  278   274   280     1 
  279   274   280     1 
  282   281   283     1 
  282   281   284     1 
  282   281   285     1 
  283   281   284     1 
  283   281   285     1 
  284   281   285     1 
  281   282   286     1 
  281   282   287     1 
  281   282   288     1 
  286   282   287     1 
  286   282   288     1 
  287   282   288     1 
  290   289   291     1 
  290   289   292     1 
  290   289   293     1 
  291   289   292     1 
  291   289   293     1 
  292   289   293     1 
  289   290   294     1 
  289   290   295     1 
  289   290   296     1 
  294   290   295     1 
  294   290   296     1 
  295   290   296     1 
  298   297   299     1 
  298   297   300     1 
  298   297   301     1 
  299   297   300     1 
  299   297   301     1 
  300   297   301     1 
  297   298   302     1 
  297   298   303     1 
  297   298   304     1 
  302   298   303     1 
  302   298   304     1 
  303   298   304     1 
  306   305   307     1 
  306   305   308     1 
  306   305   309     1 
  307   305   308     1 
  307   305   309     1 
  308   305   309     1 
  305   306   310     1 
  305   306   311     1 
  305   306   312     1 
  310   306   311     1 
  310   306   312     1 
  311   306   312     1 
  314   313   315     1 
  314   313   316     1 
  314   313   317     1 
  315   313   316     1 
  315   313   317     1 
  316   313   317     1 
  313   314   318     1 
  313   314   319     1 
  313   314   320     1 
  318   314   319     1 
  318   314   320     1 
  319   314   320     1 
  322   321   323     1 
  322   321   324     1 
  322   321   325     1 
  323   321   324     1 
  323   321   325     1 
  324   321   325     1 
  321   322   326     1 
  321   322   327     1 
  321   322   328     1 
  326   322   327     1 
  326   322   328     1 
  327   322   328     1 
  330   329   331     1 
  330   329   332     1 
  330   329   333     1 
  331   329   332     1 
  331   329   333     1 
  332   329   333     1 
  329   330   334     1 
  329   330   335     1 
  329   330   336     1 
  334   330   335     1 
  334   330   336     1 
  335   330   336     1 
  338   337   339     1 
  338   337   340     1 
  338   337   341     1 
  339   337   340     1 
  339   337   341     1 
  340   337   341     1 
  337   338   342     1 
  337   338   343     1 
  337   338   344     1 
  342   338   343     1 
  342   338   344     1 
  343   338   344     1 
  346   345   347     1 
  346   345   348     1 
  346   345   349     1 
  347   345   348     1 
  347   345   349     1 
  348   345   349     1 
  345   346   350     1 
  345   346   351     1 
  345   346   352     1 
  350   346   351     1 
  350   346   352     1 
  351   346   352     1 
  354   353   355     1 
  354   353   356     1 
  354   353   357     1 
  355   353   356     1 
  355   353   357     1 
  356   353   357     1 
  353   354   358     1 
  353   354   359     1 
  353   354   360     1 
  358   354   359     1 
  358   354   360     1 
  359   354   360     1 
  362   361   363     1 
  362   361   364     1 
  362   361   365     1 
  363   361   364     1 
  363   361   365     1 
  364   361   365     1 
  361   362   366     1 
  361   362   367     1 
  361   362   368     1 
  366   362   367     1 
  366   362   368     1 
  367   362   368     1 
  370   369   371     1 
  370   369   372     1 
  370   369   373     1 
  371   369   372     1 
  371   369   373     1 
  372   369   373     1 
  369   370   374     1 
  369   370   375     1 
  369   370   376     1 
  374   370   375     1 
  374   370   376     1 
  375   370   376     1 
  378   377   379     1 
  378   377   380     1 
  378   377   381     1 
  379   377   380     1 
  379   377   381     1 
  380   377   381     1 
  377   378   382     1 
  377   378   383     1 
  377   378   384     1 
  382   378   383     1 
  382   378   384     1 
  383   378   384     1 
  386   385   387     1 
  386   385   388     1 
  386   385   389     1 
  387   385   388     1 
  387   385   389     1 
  388   385   389     1 
  385   386   390     1 
  385   386   391     1 
  385   386   392     1 
  390   386   391     1 
  390   386   392     1 
  391   386   392     1 
  394   393   395     1 
  394   393   396     1 
  394   393   397     1 
  395   393   396     1 
  395   393   397     1 
  396   393   397     1 
  393   394   398     1 
  393   394   399     1 
  393   394   400     1 
  398   394   399     1 
  398   394   400     1 
  399   394   400     1 
  402   401   403     1 
  402   401   404     1 
  402   401   405     1 
  403   401   404     1 
  403   401   405     1 
  404   401   405     1 
  401   402   406     1 
  401   402   407     1 
  401   402   408     1 
  406   402   407     1 
  406   402   408     1 
  407   402   408     1 
  410   409   411     1 
  410   409   412     1 
  410   409   413     1 
  411   409   412     1 
  411   409   413     1 
  412   409   413     1 
  409   410   414     1 
  409   410   415     1 
  409   410   416     1 
  414   410   415     1 
  414   410   416     1 
  415   410   416     1 
  418   417   419     1 
  418   417   420     1 
  418   417   421     1 
  419   417   420     1 
  419   417   421     1 
  420   417   421     1 
  417   418   422     1 
  417   418   423     1 
  417   418   424     1 
  422   418   423     1 
  422   418   424     1 
  423   418   424     1 
  426   425   427     1 
  426   425   428     1 
  426   425   429     1 
  427   425   428     1 
  427   425   429     1 
  428   425   429     1 
  425   426   430     1 
  425   426   431     1 
  425   426   432     1 
  430   426   431     1 
  430   426   432     1 
  431   426   432     1 
  434   433   435     1 
  434   433   436     1 
  434   433   437     1 
  435   433   436     1 
  435   433   437     1 
  436   433   437     1 
  433   434   438     1 
  433   434   439     1 
  433   434   440     1 
  438   434   439     1 
  438   434   440     1 
  439   434   440     1 
  442   441   443     1 
  442   441   444     1 
  442   441   445     1 
  443   441   444     1 
  443   441   445     1 
  444   441   445     1 
  441   442   446     1 
  441   442   447     1 
  441   442   448     1 
  446   442   447     1 
  446   442   448     1 
  447   442   448     1 
  450   449   451     1 
  450   449   452     1 
  450   449   453     1 
  451   449   452     1 
  451   449   453     1 
  452   449   453     1 
  449   450   454     1 
  449   450   455     1 
  449   450   456     1 
  454   450   455     1 
  454   450   456     1 
  455   450   456     1 
  458   457   459     1 
  458   457   460     1 
  458   457   461     1 
  459   457   460     1 
  459   457   461     1 
  460   457   461     1 
  457   458   462     1 
  457   458   463     1 
  457   458   464     1 
  462   458   463     1 
  462   458   464     1 
  463   458   464     1 
  466   465   467     1 
  466   465   468     1 
  466   465   469     1 
  467   465   468     1 
  467   465   469     1 
  468   465   469     1 
  465   466   470     1 
  465   466   471     1 
  465   466   472     1 
  470   466   471     1 
  470   466   472     1 
  471   466   472     1 
  474   473   475     1 
  474   473   476     1 
  474   473   477     1 
  475   473   476     1 
  475   473   477     1 
  476   473   477     1 
  473   474   478     1 
  473   474   479     1 
  473   474   480     1 
  478   474   479     1 
  478   474   480     1 
  479   474   480     1 
  482   481   483     1 
  482   481   484     1 
  482   481   485     1 
  483   481   484     1 
  483   481   485     1 
  484   481   485     1 
  481   482   486     1 
  481   482   487     1 
  481   482   488     1 
  486   482   487     1 
  486   482   488     1 
  487   482   488     1 
  490   489   491     1 
  490   489   492     1 
  490   489   493     1 
  491   489   492     1 
  491   489   493     1 
  492   489   493     1 
  489   490   494     1 
  489   490   495     1 
  489   490   496     1 
  494   490   495     1 
  494   490   496     1 
  495   490   496     1 
  498   497   499     1 
  498   497   500     1 
  498   497   501     1 
  499   497   500     1 
  499   497   501     1 
  500   497   501     1 
  497   498   502     1 
  497   498   503     1 
  497   498   504     1 
  502   498   503     1 
  502   498   504     1 
  503   498   504     1 
  506   505   507     1 
  506   505   508     1 
  506   505   509     1 
  507   505   508     1 
  507   505   509     1 
  508   505   509     1 
  505   506   510     1 
  505   506   511     1 
  505   506   512     1 
  510   506   511     1 
  510   506   512     1 
  511   506   512     1 
  514   513   515     1 
  514   513   516     1 
  514   513   517     1 
  515   513   516     1 
  515   513   517     1 
  516   513   517     1 
  513   514   518     1 
  513   514   519     1 
  513   514   520     1 
  518   514   519     1 
  518   514   520     1 
  519   514   520     1 
  522   521   523     1 
  522   521   524     1 
  522   521   525     1 
  523   521   524     1 
  523   521   525     1 
  524   521   525     1 
  521   522   526     1 
  521   522   527     1 
  521   522   528     1 
  526   522   527     1 
  526   522   528     1 
  527   522   528     1 
  530   529   531     1 
  530   529   532     1 
  530   529   533     1 
  531   529   532     1 
  531   529   533     1 
  532   529   533     1 
  529   530   534     1 
  529   530   535     1 
  529   530   536     1 
  534   530   535     1 
  534   530   536     1 
  535   530   536     1 
  538   537   539     1 
  538   537   540     1 
  538   537   541     1 
  539   537   540     1 
  539   537   541     1 
  540   537   541     1 
  537   538   542     1 
  537   538   543     1 
  537   538   544     1 
  542   538   543     1 
  542   538   544     1 
  543   538   544     1 
  546   545   547     1 
  546   545   548     1 
  546   545   549     1 
  547   545   548     1 
  547   545   549     1 
  548   545   549     1 
  545   546   550     1 
  545   546   551     1 
  545   546   552     1 
  550   546   551     1 
  550   546   552     1 
  551   546   552     1 
  554   553   555     1 
  554   553   556     1 
  554   553   557     1 
  555   553   556     1 
  555   553   557     1 
  556   553   557     1 
  553   554   558     1 
  553   554   559     1 
  553   554   560     1 
  558   554   559     1 
  558   554   560     1 
  559   554   560     1 
  562   561   563     1 
  562   561   564     1 
  562   561   565     1 
  563   561   564     1 
  563   561   565     1 
  564   561   565     1 
  561   562   566     1 
  561   562   567     1 
  561   562   568     1 
  566   562   567     1 
  566   562   568     1 
  567   562   568     1 
  570   569   571     1 
  570   569   572     1 
  570   569   573     1 
  571   569   572     1 
  571   569   573     1 
  572   569   573     1 
  569   570   574     1 
  569   570   575     1 
  569   570   576     1 
  574   570   575     1 
  574   570   576     1 
  575   570   576     1 
  578   577   579     1 
  578   577   580     1 
  578   577   581     1 
  579   577   580     1 
  579   577   581     1 
  580   577   581     1 
  577   578   582     1 
  577   578   583     1 
  577   578   584     1 
  582   578   583     1 
  582   578   584     1 
  583   578   584     1 
  586   585   587     1 
  586   585   588     1 
  586   585   589     1 
  587   585   588     1 
  587   585   589     1 
  588   585   589     1 
  585   586   590     1 
  585   586   591     1 
  585   586   592     1 
  590   586   591     1 
  590   586   592     1 
  591   586   592     1 
  594   593   595     1 
  594   593   596     1 
  594   593   597     1 
  595   593   596     1 
  595   593   597     1 
  596   593   597     1 
  593   594   598     1 
  593   594   599     1 
  593   594   600     1 
  598   594   599     1 
  598   594   600     1 
  599   594   600     1 
  602   601   603     1 
  602   601   604     1 
  602   601   605     1 
  603   601   604     1 
  603   601   605     1 
  604   601   605     1 
  601   602   606     1 
  601   602   607     1 
  601   602   608     1 
  606   602   607     1 
  606   602   608     1 
  607   602   608     1 
  610   609   611     1 
  610   609   612     1 
  610   609   613     1 
  611   609   612     1 
  611   609   613     1 
  612   609   613     1 
  609   610   614     1 
  609   610   615     1 
  609   610   616     1 
  614   610   615     1 
  614   610   616     1 
  615   610   616     1 
  618   617   619     1 
  618   617   620     1 
  618   617   621     1 
  619   617   620     1 
  619   617   621     1 
  620   617   621     1 
  617   618   622     1 
  617   618   623     1 
  617   618   624     1 
  622   618   623     1 
  622   618   624     1 
  623   618   624     1 
  626   625   627     1 
  626   625   628     1 
  626   625   629     1 
  627   625   628     1 
  627   625   629     1 
  628   625   629     1 
  625   626   630     1 
  625   626   631     1 
  625   626   632     1 
  630   626   631     1 
  630   626   632     1 
  631   626   632     1 
  634   633   635     1 
  634   633   636     1 
  634   633   637     1 
  635   633   636     1 
  635   633   637     1 
  636   633   637     1 
  633   634   638     1 
  633   634   639     1 
  633   634   640     1 
  638   634   639     1 
  638   634   640     1 
  639   634   640     1 
  642   641   643     1 
  642   641   644     1 
  642   641   645     1 
  643   641   644     1 
  643   641   645     1 
  644   641   645     1 
  641   642   646     1 
  641   642   647     1 
  641   642   648     1 
  646   642   647     1 
  646   642   648     1 
  647   642   648     1 
  650   649   651     1 
  650   649   652     1 
  650   649   653     1 
  651   649   652     1 
  651   649   653     1 
  652   649   653     1 
  649   650   654     1 
  649   650   655     1 
  649   650   656     1 
  654   650   655     1 
  654   650   656     1 
  655   650   656     1 
  658   657   659     1 
  658   657   660     1 
  658   657   661     1 
  659   657   660     1 
  659   657   661     1 
  660   657   661     1 
  657   658   662     1 
  657   658   663     1 
  657   658   664     1 
  662   658   663     1 
  662   658   664     1 
  663   658   664     1 
  666   665   667     1 
  666   665   668     1 
  666   665   669     1 
  667   665   668     1 
  667   665   669     1 
  668   665   669     1 
  665   666   670     1 
  665   666   671     1 
  665   666   672     1 
  670   666   671     1 
  670   666   672     1 
  671   666   672     1 
  674   673   675     1 
  674   673   676     1 
  674   673   677     1 
  675   673   676     1 
  675   673   677     1 
  676   673   677     1 
  673   674   678     1 
  673   674   679     1 
  673   674   680     1 
  678   674   679     1 
  678   674   680     1 
  679   674   680     1 
  682   681   683     1 
  682   681   684     1 
  682   681   685     1 
  683   681   684     1 
  683   681   685     1 
  684   681   685     1 
  681   682   686     1 
  681   682   687     1 
  681   682   688     1 
  686   682   687     1 
  686   682   688     1 
  687   682   688     1 
  690   689   691     1 
  690   689   692     1 
  690   689   693     1 
  691   689   692     1 
  691   689   693     1 
  692   689   693     1 
  689   690   694     1 
  689   690   695     1 
  689   690   696     1 
  694   690   695     1 
  694   690   696     1 
  695   690   696     1 
  698   697   699     1 
  698   697   700     1 
  698   697   701     1 
  699   697   700     1 
  699   697   701     1 
  700   697   701     1 
  697   698   702     1 
  697   698   703     1 
  697   698   704     1 
  702   698   703     1 
  702   698   704     1 
  703   698   704     1 
  706   705   707     1 
  706   705   708     1 
  706   705   709     1 
  707   705   708     1 
  707   705   709     1 
  708   705   709     1 
  705   706   710     1 
  705   706   711     1 
  705   706   712     1 
  710   706   711     1 
  710   706   712     1 
  711   706   712     1 
  714   713   715     1 
  714   713   716     1 
  714   713   717     1 
  715   713   716     1 
  715   713   717     1 
  716   713   717     1 
  713   714   718     1 
  713   714   719     1 
  713   714   720     1 
  718   714   719     1 
  718   714   720     1 
  719   714   720     1 
  722   721   723     1 
  722   721   724     1 
  722   721   725     1 
  723   721   724     1 
  723   721   725     1 
  724   721   725     1 
  721   722   726     1 
  721   722   727     1 
  721   722   728     1 
  726   722   727     1 
  726   722   728     1 
  727   722   728     1 
  730   729   731     1 
  730   729   732     1 
  730   729   733     1 
  731   729   732     1 
  731   729   733     1 
  732   729   733     1 
  729   730   734     1 
  729   730   735     1 
  729   730   736     1 
  734   730   735     1 
  734   730   736     1 
  735   730   736     1 
  738   737   739     1 
  738   737   740     1 
  738   737   741     1 
  739   737   740     1 
  739   737   741     1 
  740   737   741     1 
  737   738   742     1 
  737   738   743     1 
  737   738   744     1 
  742   738   743     1 
  742   738   744     1 
  743   738   744     1 
  746   745   747     1 
  746   745   748     1 
  746   745   749     1 
  747   745   748     1 
  747   745   749     1 
  748   745   749     1 
  745   746   750     1 
  745   746   751     1 
  745   746   752     1 
  750   746   751     1 
  750   746   752     1 
  751   746   752     1 
  754   753   755     1 
  754   753   756     1 
  754   753   757     1 
  755   753   756     1 
  755   753   757     1 
  756   753   757     1 
  753   754   758     1 
  753   754   759     1 
  753   754   760     1 
  758   754   759     1 
  758   754   760     1 
  759   754   760     1 
  762   761   763     1 
  762   761   764     1 
  762   761   765     1 
  763   761   764     1 
  763   761   765     1 
  764   761   765     1 
  761   762   766     1 
  761   762   767     1 
  761   762   768     1 
  766   762   767     1 
  766   762   768     1 
  767   762   768     1 
  770   769   771     1 
  770   769   772     1 
  770   769   773     1 
  771   769   772     1 
  771   769   773     1 
  772   769   773     1 
  769   770   774     1 
  769   770   775     1 
  769   770   776     1 
  774   770   775     1 
  774   770   776     1 
  775   770   776     1 
  778   777   779     1 
  778   777   780     1 
  778   777   781     1 
  779   777   780     1 
  779   777   781     1 
  780   777   781     1 
  777   778   782     1 
  777   778   783     1 
  777   778   784     1 
  782   778   783     1 
  782   778   784     1 
  783   778   784     1 
  786   785   787     1 
  786   785   788     1 
  786   785   789     1 
  787   785   788     1 
  787   785   789     1 
  788   785   789     1 
  785   786   790     1 
  785   786   791     1 
  785   786   792     1 
  790   786   791     1 
  790   786   792     1 
  791   786   792     1 
  794   793   795     1 
  794   793   796     1 
  794   793   797     1 
  795   793   796     1 
  795   793   797     1 
  796   793   797     1 
  793   794   798     1 
  793   794   799     1 
  793   794   800     1 
  798   794   799     1 
  798   794   800     1 
  799   794   800     1 
  802   801   803     1 
  802   801   804     1 
  802   801   805     1 
  803   801   804     1 
  803   801   805     1 
  804   801   805     1 
  801   802   806     1 
  801   802   807     1 
  801   802   808     1 
  806   802   807     1 
  806   802   808     1 
  807   802   808     1 
  810   809   811     1 
  810   809   812     1 
  810   809   813     1 
  811   809   812     1 
  811   809   813     1 
  812   809   813     1 
  809   810   814     1 
  809   810   815     1 
  809   810   816     1 
  814   810   815     1 
  814   810   816     1 
  815   810   816     1 
  818   817   819     1 
  818   817   820     1 
  818   817   821     1 
  819   817   820     1 
  819   817   821     1 
  820   817   821     1 
  817   818   822     1 
  817   818   823     1 
  817   818   824     1 
  822   818   823     1 
  822   818   824     1 
  823   818   824     1 
  826   825   827     1 
  826   825   828     1 
  826   825   829     1 
  827   825   828     1 
  827   825   829     1 
  828   825   829     1 
  825   826   830     1 
  825   826   831     1 
  825   826   832     1 
  830   826   831     1 
  830   826   832     1 
  831   826   832     1 
  834   833   835     1 
  834   833   836     1 
  834   833   837     1 
  835   833   836     1 
  835   833   837     1 
  836   833   837     1 
  833   834   838     1 
  833   834   839     1 
  833   834   840     1 
  838   834   839     1 
  838   834   840     1 
  839   834   840     1 
  842   841   843     1 
  842   841   844     1 
  842   841   845     1 
  843   841   844     1 
  843   841   845     1 
  844   841   845     1 
  841   842   846     1 
  841   842   847     1 
  841   842   848     1 
  846   842   847     1 
  846   842   848     1 
  847   842   848     1 
  850   849   851     1 
  850   849   852     1 
  850   849   853     1 
  851   849   852     1 
  851   849   853     1 
  852   849   853     1 
  849   850   854     1 
  849   850   855     1 
  849   850   856     1 
  854   850   855     1 
  854   850   856     1 
  855   850   856     1 
  858   857   859     1 
  858   857   860     1 
  858   857   861     1 
  859   857   860     1 
  859   857   861     1 
  860   857   861     1 
  857   858   862     1 
  857   858   863     1 
  857   858   864     1 
  862   858   863     1 
  862   858   864     1 
  863   858   864     1 
  866   865   867     1 
  866   865   868     1 
  866   865   869     1 
  867   865   868     1 
  867   865   869     1 
  868   865   869     1 
  865   866   870     1 
  865   866   871     1 
  865   866   872     1 
  870   866   871     1 
  870   866   872     1 
  871   866   872     1 
  874   873   875     1 
  874   873   876     1 
  874   873   877     1 
  875   873   876     1 
  875   873   877     1 
  876   873   877     1 
  873   874   878     1 
  873   874   879     1 
  873   874   880     1 
  878   874   879     1 
  878   874   880     1 
  879   874   880     1 
  882   881   883     1 
  882   881   884     1 
  882   881   885     1 
  883   881   884     1 
  883   881   885     1 
  884   881   885     1 
  881   882   886     1 
  881   882   887     1 
  881   882   888     1 
  886   882   887     1 
  886   882   888     1 
  887   882   888     1 
  890   889   891     1 
  890   889   892     1 
  890   889   893     1 
  891   889   892     1 
  891   889   893     1 
  892   889   893     1 
  889   890   894     1 
  889   890   895     1 
  889   890   896     1 
  894   890   895     1 
  894   890   896     1 
  895   890   896     1 
  898   897   899     1 
  898   897   900     1 
  898   897   901     1 
  899   897   900     1 
  899   897   901     1 
  900   897   901     1 
  897   898   902     1 
  897   898   903     1 
  897   898   904     1 
  902   898   903     1 
  902   898   904     1 
  903   898   904     1 
  906   905   907     1 
  906   905   908     1 
  906   905   909     1 
  907   905   908     1 
  907   905   909     1 
  908   905   909     1 
  905   906   910     1 
  905   906   911     1 
  905   906   912     1 
  910   906   911     1 
  910   906   912     1 
  911   906   912     1 
  914   913   915     1 
  914   913   916     1 
  914   913   917     1 
  915   913   916     1 
  915   913   917     1 
  916   913   917     1 
  913   914   918     1 
  913   914   919     1 
  913   914   920     1 
  918   914   919     1 
  918   914   920     1 
  919   914   920     1 
  922   921   923     1 
  922   921   924     1 
  922   921   925     1 
  923   921   924     1 
  923   921   925     1 
  924   921   925     1 
  921   922   926     1 
  921   922   927     1 
  921   922   928     1 
  926   922   927     1 
  926   922   928     1 
  927   922   928     1 
  930   929   931     1 
  930   929   932     1 
  930   929   933     1 
  931   929   932     1 
  931   929   933     1 
  932   929   933     1 
  929   930   934     1 
  929   930   935     1 
  929   930   936     1 
  934   930   935     1 
  934   930   936     1 
  935   930   936     1 
  938   937   939     1 
  938   937   940     1 
  938   937   941     1 
  939   937   940     1 
  939   937   941     1 
  940   937   941     1 
  937   938   942     1 
  937   938   943     1 
  937   938   944     1 
  942   938   943     1 
  942   938   944     1 
  943   938   944     1 
  946   945   947     1 
  946   945   948     1 
  946   945   949     1 
  947   945   948     1 
  947   945   949     1 
  948   945   949     1 
  945   946   950     1 
  945   946   951     1 
  945   946   952     1 
  950   946   951     1 
  950   946   952     1 
  951   946   952     1 
  954   953   955     1 
  954   953   956     1 
  954   953   957     1 
  955   953   956     1 
  955   953   957     1 
  956   953   957     1 
  953   954   958     1 
  953   954   959     1 
  953   954   960     1 
  958   954   959     1 
  958   954   960     1 
  959   954   960     1 
  962   961   963     1 
  962   961   964     1 
  962   961   965     1 
  963   961   964     1 
  963   961   965     1 
  964   961   965     1 
  961   962   966     1 
  961   962   967     1 
  961   962   968     1 
  966   962   967     1 
  966   962   968     1 
  967   962   968     1 
  970   969   971     1 
  970   969   972     1 
  970   969   973     1 
  971   969   972     1 
  971   969   973     1 
  972   969   973     1 
  969   970   974     1 
  969   970   975     1 
  969   970   976     1 
  974   970   975     1 
  974   970   976     1 
  975   970   976     1 
  978   977   979     1 
  978   977   980     1 
  978   977   981     1 
  979   977   980     1 
  979   977   981     1 
  980   977   981     1 
  977   978   982     1 
  977   978   983     1 
  977   978   984     1 
  982   978   983     1 
  982   978   984     1 
  983   978   984     1 
  986   985   987     1 
  986   985   988     1 
  986   985   989     1 
  987   985   988     1 
  987   985   989     1 
  988   985   989     1 
  985   986   990     1 
  985   986   991     1 
  985   986   992     1 
  990   986   991     1 
  990   986   992     1 
  991   986   992     1 
  994   993   995     1 
  994   993   996     1 
  994   993   997     1 
  995   993   996     1 
  995   993   997     1 
  996   993   997     1 
  993   994   998     1 
  993   994   999     1 
  993   994  1000     1 
  998   994   999     1 
  998   994  1000     1 
  999   994  1000     1 

[ dihedrals ]
;  ai    aj    ak    al funct            c0            c1            c2            c3            c4            c5
    3     1     2     6     3 
    3     1     2     7     3 
    3     1     2     8     3 
    4     1     2     6     3 
    4     1     2     7     3 
    4     1     2     8     3 
    5     1     2     6     3 
    5     1     2     7     3 
    5     1     2     8     3 
   11     9    10    14     3 
   11     9    10    15     3 
   11     9    10    16     3 
   12     9    10    14     3 
   12     9    10    15     3 
   12     9    10    16     3 
   13     9    10    14     3 
   13     9    10    15     3 
   13     9    10    16     3 
   19    17    18    22     3 
   19    17    18    23     3 
   19    17    18    24     3 
   20    17    18    22     3 
   20    17    18    23     3 
   20    17    18    24     3 
   21    17    18    22     3 
   21    17    18    23     3 
   21    17    18    24     3 
   27    25    26    30     3 
   27    25    26    31     3 
   27    25    26    32     3 
   28    25    26    30     3 
   28    25    26    31     3 
   28    25    26    32     3 
   29    25    26    30     3 
   29    25    26    31     3 
   29    25    26    32     3 
   35    33    34    38     3 
   35    33    34    39     3 
   35    33    34    40     3 
   36    33    34    38     3 
   36    33    34    39     3 
   36    33    34    40     3 
   37    33    34    38     3 
   37    33    34    39     3 
   37    33    34    40     3 
   43    41    42    46     3 
   43    41    42    47     3 
   43    41    42    48     3 
   44    41    42    46     3 
   44    41    42    47     3 
   44    41    42    48     3 
   45    41    42    46     3 
   45    41    42    47     3 
   45    41    42    48     3 
   51    49    50    54     3 
   51    49    50    55     3 
   51    49    50    56     3 
   52    49    50    54     3 
   52    49    50    55     3 
   52    49    50    56     3 
   53    49    50    54     3 
   53    49    50    55     3 
   53    49    50    56     3 
   59    57    58    62     3 
   59    57    58    63     3 
   59    57    58    64     3 
   60    57    58    62     3 
   60    57    58    63     3 
   60    57    58    64     3 
   61    57    58    62     3 
   61    57    58    63     3 
   61    57    58    64     3 
   67    65    66    70     3 
   67    65    66    71     3 
   67    65    66    72     3 
   68    65    66    70     3 
   68    65    66    71     3 
   68    65    66    72     3 
   69    65    66    70     3 
   69    65    66    71     3 
   69    65    66    72     3 
   75    73    74    78     3 
   75    73    74    79     3 
   75    73    74    80     3 
   76    73    74    78     3 
   76    73    74    79     3 
   76    73    74    80     3 
   77    73    74    78     3 
   77    73    74    79     3 
   77    73    74    80     3 
   83    81    82    86     3 
   83    81    82    87     3 
   83    81    82    88     3 
   84    81    82    86     3 
   84    81    82    87     3 
   84    81    82    88     3 
   85    81    82    86     3 
   85    81    82    87     3 
   85    81    82    88     3 
   91    89    90    94     3 
   91    89    90    95     3 
   91    89    90    96     3 
   92    89    90    94     3 
   92    89    90    95     3 
   92    89    90    96     3 
   93    89    90    94     3 
   93    89    90    95     3 
   93    89    90    96     3 
   99    97    98   102     3 
   99    97    98   103     3 
   99    97    98   104     3 
  100    97    98   102     3 
  100    97    98   103     3 
  100    97    98   104     3 
  101    97    98   102     3 
  101    97    98   103     3 
  101    97    98   104     3 
  107   105   106   110     3 
  107   105   106   111     3 
  107   105   106   112     3 
  108   105   106   110     3 
  108   105   106   111     3 
  108   105   106   112     3 
  109   105   106   110     3 
  109   105   106   111     3 
  109   105   106   112     3 
  115   113   114   118     3 
  115   113   114   119     3 
  115   113   114   120     3 
  116   113   114   118     3 
  116   113   114   119     3 
  116   113   114   120     3 
  117   113   114   118     3 
  117   113   114   119     3 
  117   113   114   120     3 
  123   121   122   126     3 
  123   121   122   127     3 
  123   121   122   128     3 
  124   121   122   126     3 
  124   121   122   127     3 
  124   121   122   128     3 
  125   121   122   126     3 
  125   121   122   127     3 
  125   121   122   128     3 
  131   129   130   134     3 
  131   129   130   135     3 
  131   129   130   136     3 
  132   129   130   134     3 
  132   129   130   135     3 
  132   129   130   136     3 
  133   129   130   134     3 
  133   129   130   135     3 
  133   129   130   136     3 
  139   137   138   142     3 
  139   137   138   143     3 
  139   137   138   144     3 
  140   137   138   142     3 
  140   137   138   143     3 
  140   137   138   144     3 
  141   137   138   142     3 
  141   137   138   143     3 
  141   137   138   144     3 
  147   145   146   150     3 
  147   145   146   151     3 
  147   145   146   152     3 
  148   145   146   150     3 
  148   145   146   151     3 
  148   145   146   152     3 
  149   145   146   150     3 
  149   145   146   151     3 
  149   145   146   152     3 
  155   153   154   158     3 
  155   153   154   159     3 
  155   153   154   160     3 
  156   153   154   158     3 
  156   153   154   159     3 
  156   153   154   160     3 
  157   153   154   158     3 
  157   153   154   159     3 
  157   153   154   160     3 
  163   161   162   166     3 
  163   161   162   167     3 
  163   161   162   168     3 
  164   161   162   166     3 
  164   161   162   167     3 
  164   161   162   168     3 
  165   161   162   166     3 
  165   161   162   167     3 
  165   161   162   168     3 
  171   169   170   174     3 
  171   169   170   175     3 
  171   169   170   176     3 
  172   169   170   174     3 
  172   169   170   175     3 
  172   169   170   176     3 
  173   169   170   174     3 
  173   169   170   175     3 
  173   169   170   176     3 
  179   177   178   182     3 
  179   177   178   183     3 
  179   177   178   184     3 
  180   177   178   182     3 
  180   177   178   183     3 
  180   177   178   184     3 
  181   177   178   182     3 
  181   177   178   183     3 
  181   177   178   184     3 
  187   185   186   190     3 
  187   185   186   191     3 
  187   185   186   192     3 
  188   185   186   190     3 
  188   185   186   191     3 
  188   185   186   192     3 
  189   185   186   190     3 
  189   185   186   191     3 
  189   185   186   192     3 
  195   193   194   198     3 
  195   193   194   199     3 
  195   193   194   200     3 
  196   193   194   198     3 
  196   193   194   199     3 
  196   193   194   200     3 
  197   193   194   198     3 
  197   193   194   199     3 
  197   193   194   200     3 
  203   201   202   206     3 
  203   201   202   207     3 
  203   201   202   208     3 
  204   201   202   206     3 
  204   201   202   207     3 
  204   201   202   208     3 
  205   201   202   206     3 
  205   201   202   207     3 
  205   201   202   208     3 
  211   209   210   214     3 
  211   209   210   215     3 
  211   209   210   216     3 
  212   209   210   214     3 
  212   209   210   215     3 
  212   209   210   216     3 
  213   209   210   214     3 
  213   209   210   215     3 
  213   209   210   216     3 
  219   217   218   222     3 
  219   217   218   223     3 
  219   217   218   224     3 
  220   217   218   222     3 
  220   217   218   223     3 
  220   217   218   224     3 
  221   217   218   222     3 
  221   217   218   223     3 
  221   217   218   224     3 
  227   225   226   230     3 
  227   225   226   231     3 
  227   225   226   232     3 
  228   225   226   230     3 
  228   225   226   231     3 
  228   225   226   232     3 
  229   225   226   230     3 
  229   225   226   231     3 
  229   225   226   232     3 
  235   233   234   238     3 
  235   233   234   239     3 
  235   233   234   240     3 
  236   233   234   238     3 
  236   233   234   239     3 
  236   233   234   240     3 
  237   233   234   238     3 
  237   233   234   239     3 
  237   233   234   240     3 
  243   241   242   246     3 
  243   241   242   247     3 
  243   241   242   248     3 
  244   241   242   246     3 
  244   241   242   247     3 
  244   241   242   248     3 
  245   241   242   246     3 
  245   241   242   247     3 
  245   241   242   248     3 
  251   249   250   254     3 
  251   249   250   255     3 
  251   249   250   256     3 
  252   249   250   254     3 
  252   249   250   255     3 
  252   249   250   256     3 
  253   249   250   254     3 
  253   249   250   255     3 
  253   249   250   256     3 
  259   257   258   262     3 
  259   257   258   263     3 
  259   257   258   264     3 
  260   257   258   262     3 
  260   257   258   263     3 
  260   257   258   264     3 
  261   257   258   262     3 
  261   257   258   263     3 
  261   257   258   264     3 
  267   265   266   270     3 
  267   265   266   271     3 
  267   265   266   272     3 
  268   265   266   270     3 
  268   265   266   271     3 
  268   265   266   272     3 
  269   265   266   270     3 
  269   265   266   271     3 
  269   265   266   272     3 
  275   273   274   278     3 
  275   273   274   279     3 
  275   273   274   280     3 
  276   273   274   278     3 
  276   273   274   279     3 
  276   273   274   280     3 
  277   273   274   278     3 
  277   273   274   279     3 
  277   273   274   280     3 
  283   281   282   286     3 
  283   281   282   287     3 
  283   281   282   288     3 
  284   281   282   286     3 
  284   281   282   287     3 
  284   281   282   288     3 
  285   281   282   286     3 
  285   281   282   287     3 
  285   281   282   288     3 
  291   289   290   294     3 
  291   289   290   295     3 
  291   289   290   296     3 
  292   289   290   294     3 
  292   289   290   295     3 
  292   289   290   296     3 
  293   289   290   294     3 
  293   289   290   295     3 
  293   289   290   296     3 
  299   297   298   302     3 
  299   297   298   303     3 
  299   297   298   304     3 
  300   297   298   302     3 
  300   297   298   303     3 
  300   297   298   304     3 
  301   297   298   302     3 
  301   297   298   303     3 
  301   297   298   304     3 
  307   305   306   310     3 
  307   305   306   311     3 
  307   305   306   312     3 
  308   305   306   310     3 
  308   305   306   311     3 
  308   305   306   312     3 
  309   305   306   310     3 
  309   305   306   311     3 
  309   305   306   312     3 
  315   313   314   318     3 
  315   313   314   319     3 
  315   313   314   320     3 
  316   313   314   318     3 
  316   313   314   319     3 
  316   313   314   320     3 
  317   313   314   318     3 
  317   313   314   319     3 
  317   313   314   320     3 
  323   321   322   326     3 
  323   321   322   327     3 
  323   321   322   328     3 
  324   321   322   326     3 
  324   321   322   327     3 
  324   321   322   328     3 
  325   321   322   326     3 
  325   321   322   327     3 
  325   321   322   328     3 
  331   329   330   334     3 
  331   329   330   335     3 
  331   329   330   336     3 
  332   329   330   334     3 
  332   329   330   335     3 
  332   329   330   336     3 
  333   329   330   334     3 
  333   329   330   335     3 
  333   329   330   336     3 
  339   337   338   342     3 
  339   337   338   343     3 
  339   337   338   344     3 
  340   337   338   342     3 
  340   337   338   343     3 
  340   337   338   344     3 
  341   337   338   342     3 
  341   337   338   343     3 
  341   337   338   344     3 
  347   345   346   350     3 
  347   345   346   351     3 
  347   345   346   352     3 
  348   345   346   350     3 
  348   345   346   351     3 
  348   345   346   352     3 
  349   345   346   350     3 
  349   345   346   351     3 
  349   345   346   352     3 
  355   353   354   358     3 
  355   353   354   359     3 
  355   353   354   360     3 
  356   353   354   358     3 
  356   353   354   359     3 
  356   353   354   360     3 
  357   353   354   358     3 
  357   353   354   359     3 
  357   353   354   360     3 
  363   361   362   366     3 
  363   361   362   367     3 
  363   361   362   368     3 
  364   361   362   366     3 
  364   361   362   367     3 
  364   361   362   368     3 
  365   361   362   366     3 
  365   361   362   367     3 
  365   361   362   368     3 
  371   369   370   374     3 
  371   369   370   375     3 
  371   369   370   376     3 
  372   369   370   374     3 
  372   369   370   375     3 
  372   369   370   376     3 
  373   369   370   374     3 
  373   369   370   375     3 
  373   369   370   376     3 
  379   377   378   382     3 
  379   377   378   383     3 
  379   377   378   384     3 
  380   377   378   382     3 
  380   377   378   383     3 
  380   377   378   384     3 
  381   377   378   382     3 
  381   377   378   383     3 
  381   377   378   384     3 
  387   385   386   390     3 
  387   385   386   391     3 
  387   385   386   392     3 
  388   385   386   390     3 
  388   385   386   391     3 
  388   385   386   392     3 
  389   385   386   390     3 
  389   385   386   391     3 
  389   385   386   392     3 
  395   393   394   398     3 
  395   393   394   399     3 
  395   393   394   400     3 
  396   393   394   398     3 
  396   393   394   399     3 
  396   393   394   400     3 
  397   393   394   398     3 
  397   393   394   399     3 
  397   393   394   400     3 
  403   401   402   406     3 
  403   401   402   407     3 
  403   401   402   408     3 
  404   401   402   406     3 
  404   401   402   407     3 
  404   401   402   408     3 
  405   401   402   406     3 
  405   401   402   407     3 
  405   401   402   408     3 
  411   409   410   414     3 
  411   409   410   415     3 
  411   409   410   416     3 
  412   409   410   414     3 
  412   409   410   415     3 
  412   409   410   416     3 
  413   409   410   414     3 
  413   409   410   415     3 
  413   409   410   416     3 
  419   417   418   422     3 
  419   417   418   423     3 
  419   417   418   424     3 
  420   417   418   422     3 
  420   417   418   423     3 
  420   417   418   424     3 
  421   417   418   422     3 
  421   417   418   423     3 
  421   417   418   424     3 
  427   425   426   430     3 
  427   425   426   431     3 
  427   425   426   432     3 
  428   425   426   430     3 
  428   425   426   431     3 
  428   425   426   432     3 
  429   425   426   430     3 
  429   425   426   431     3 
  429   425   426   432     3 
  435   433   434   438     3 
  435   433   434   439     3 
  435   433   434   440     3 
  436   433   434   438     3 
  436   433   434   439     3 
  436   433   434   440     3 
  437   433   434   438     3 
  437   433   434   439     3 
  437   433   434   440     3 
  443   441   442   446     3 
  443   441   442   447     3 
  443   441   442   448     3 
  444   441   442   446     3 
  444   441   442   447     3 
  444   441   442   448     3 
  445   441   442   446     3 
  445   441   442   447     3 
  445   441   442   448     3 
  451   449   450   454     3 
  451   449   450   455     3 
  451   449   450   456     3 
  452   449   450   454     3 
  452   449   450   455     3 
  452   449   450   456     3 
  453   449   450   454     3 
  453   449   450   455     3 
  453   449   450   456     3 
  459   457   458   462     3 
  459   457   458   463     3 
  459   457   458   464     3 
  460   457   458   462     3 
  460   457   458   463     3 
  460   457   458   464     3 
  461   457   458   462     3 
  461   457   458   463     3 
  461   457   458   464     3 
  467   465   466   470     3 
  467   465   466   471     3 
  467   465   466   472     3 
  468   465   466   470     3 
  468   465   466   471     3 
  468   465   466   472     3 
  469   465   466   470     3 
  469   465   466   471     3 
  469   465   466   472     3 
  475   473   474   478     3 
  475   473   474   479     3 
  475   473   474   480     3 
  476   473   474   478     3 
  476   473   474   479     3 
  476   473   474   480     3 
  477   473   474   478     3 
  477   473   474   479     3 
  477   473   474   480     3 
  483   481   482   486     3 
  483   481   482   487     3 
  483   481   482   488     3 
  484   481   482   486     3 
  484   481   482   487     3 
  484   481   482   488     3 
  485   481   482   486     3 
  485   481   482   487     3 
  485   481   482   488     3 
  491   489   490   494     3 
  491   489   490   495     3 
  491   489   490   496     3 
  492   489   490   494     3 
  492   489   490   495     3 
  492   489   490   496     3 
  493   489   490   494     3 
  493   489   490   495     3 
  493   489   490   496     3 
  499   497   498   502     3 
  499   497   498   503     3 
  499   497   498   504     3 
  500   497   498   502     3 
  500   497   498   503     3 
  500   497   498   504     3 
  501   497   498   502     3 
  501   497   498   503     3 
  501   497   498   504     3 
  507   505   506   510     3 
  507   505   506   511     3 
  507   505   506   512     3 
  508   505   506   510     3 
  508   505   506   511     3 
  508   505   506   512     3 
  509   505   506   510     3 
  509   505   506   511     3 
  509   505   506   512     3 
  515   513   514   518     3 
  515   513   514   519     3 
  515   513   514   520     3 
  516   513   514   518     3 
  516   513   514   519     3 
  516   513   514   520     3 
  517   513   514   518     3 
  517   513   514   519     3 
  517   513   514   520     3 
  523   521   522   526     3 
  523   521   522   527     3 
  523   521   522   528     3 
  524   521   522   526     3 
  524   521   522   527     3 
  524   521   522   528     3 
  525   521   522   526     3 
  525   521   522   527     3 
  525   521   522   528     3 
  531   529   530   534     3 
  531   529   530   535     3 
  531   529   530   536     3 
  532   529   530   534     3 
  532   529   530   535     3 
  532   529   530   536     3 
  533   529   530   534     3 
  533   529   530   535     3 
  533   529   530   536     3 
  539   537   538   542     3 
  539   537   538   543     3 
  539   537   538   544     3 
  540   537   538   542     3 
  540   537   538   543     3 
  540   537   538   544     3 
  541   537   538   542     3 
  541   537   538   543     3 
  541   537   538   544     3 
  547   545   546   550     3 
  547   545   546   551     3 
  547   545   546   552     3 
  548   545   546   550     3 
  548   545   546   551     3 
  548   545   546   552     3 
  549   545   546   550     3 
  549   545   546   551     3 
  549   545   546   552     3 
  555   553   554   558     3 
  555   553   554   559     3 
  555   553   554   560     3 
  556   553   554   558     3 
  556   553   554   559     3 
  556   553   554   560     3 
  557   553   554   558     3 
  557   553   554   559     3 
  557   553   554   560     3 
  563   561   562   566     3 
  563   561   562   567     3 
  563   561   562   568     3 
  564   561   562   566     3 
  564   561   562   567     3 
  564   561   562   568     3 
  565   561   562   566     3 
  565   561   562   567     3 
  565   561   562   568     3 
  571   569   570   574     3 
  571   569   570   575     3 
  571   569   570   576     3 
  572   569   570   574     3 
  572   569   570   575     3 
  572   569   570   576     3 
  573   569   570   574     3 
  573   569   570   575     3 
  573   569   570   576     3 
  579   577   578   582     3 
  579   577   578   583     3 
  579   577   578   584     3 
  580   577   578   582     3 
  580   577   578   583     3 
  580   577   578   584     3 
  581   577   578   582     3 
  581   577   578   583     3 
  581   577   578   584     3 
  587   585   586   590     3 
  587   585   586   591     3 
  587   585   586   592     3 
  588   585   586   590     3 
  588   585   586   591     3 
  588   585   586   592     3 
  589   585   586   590     3 
  589   585   586   591     3 
  589   585   586   592     3 
  595   593   594   598     3 
  595   593   594   599     3 
  595   593   594   600     3 
  596   593   594   598     3 
  596   593   594   599     3 
  596   593   594   600     3 
  597   593   594   598     3 
  597   593   594   599     3 
  597   593   594   600     3 
  603   601   602   606     3 
  603   601   602   607     3 
  603   601   602   608     3 
  604   601   602   606     3 
  604   601   602   607     3 
  604   601   602   608     3 
  605   601   602   606     3 
  605   601   602   607     3 
  605   601   602   608     3 
  611   609   610   614     3 
  611   609   610   615     3 
  611   609   610   616     3 
  612   609   610   614     3 
  612   609   610   615     3 
  612   609   610   616     3 
  613   609   610   614     3 
  613   609   610   615     3 
  613   609   610   616     3 
  619   617   618   622     3 
  619   617   618   623     3 
  619   617   618   624     3 
  620   617   618   622     3 
  620   617   618   623     3 
  620   617   618   624     3 
  621   617   618   622     3 
  621   617   618   623     3 
  621   617   618   624     3 
  627   625   626   630     3 
  627   625   626   631     3 
  627   625   626   632     3 
  628   625   626   630     3 
  628   625   626   631     3 
  628   625   626   632     3 
  629   625   626   630     3 
  629   625   626   631     3 
  629   625   626   632     3 
  635   633   634   638     3 
  635   633   634   639     3 
  635   633   634   640     3 
  636   633   634   638     3 
  636   633   634   639     3 
  636   633   634   640     3 
  637   633   634   638     3 
  637   633   634   639     3 
  637   633   634   640     3 
  643   641   642   646     3 
  643   641   642   647     3 
  643   641   642   648     3 
  644   641   642   646     3 
  644   641   642   647     3 
  644   641   642   648     3 
  645   641   642   646     3 
  645   641   642   647     3 
  645   641   642   648     3 
  651   649   650   654     3 
  651   649   650   655     3 
  651   649   650   656     3 
  652   649   650   654     3 
  652   649   650   655     3 
  652   649   650   656     3 
  653   649   650   654     3 
  653   649   650   655     3 
  653   649   650   656     3 
  659   657   658   662     3 
  659   657   658   663     3 
  659   657   658   664     3 
  660   657   658   662     3 
  660   657   658   663     3 
  660   657   658   664     3 
  661   657   658   662     3 
  661   657   658   663     3 
  661   657   658   664     3 
  667   665   666   670     3 
  667   665   666   671     3 
  667   665   666   672     3 
  668   665   666   670     3 
  668   665   666   671     3 
  668   665   666   672     3 
  669   665   666   670     3 
  669   665   666   671     3 
  669   665   666   672     3 
  675   673   674   678     3 
  675   673   674   679     3 
  675   673   674   680     3 
  676   673   674   678     3 
  676   673   674   679     3 
  676   673   674   680     3 
  677   673   674   678     3 
  677   673   674   679     3 
  677   673   674   680     3 
  683   681   682   686     3 
  683   681   682   687     3 
  683   681   682   688     3 
  684   681   682   686     3 
  684   681   682   687     3 
  684   681   682   688     3 
  685   681   682   686     3 
  685   681   682   687     3 
  685   681   682   688     3 
  691   689   690   694     3 
  691   689   690   695     3 
  691   689   690   696     3 
  692   689   690   694     3 
  692   689   690   695     3 
  692   689   690   696     3 
  693   689   690   694     3 
  693   689   690   695     3 
  693   689   690   696     3 
  699   697   698   702     3 
  699   697   698   703     3 
  699   697   698   704     3 
  700   697   698   702     3 
  700   697   698   703     3 
  700   697   698   704     3 
  701   697   698   702     3 
  701   697   698   703     3 
  701   697   698   704     3 
  707   705   706   710     3 
  707   705   706   711     3 
  707   705   706   712     3 
  708   705   706   710     3 
  708   705   706   711     3 
  708   705   706   712     3 
  709   705   706   710     3 
  709   705   706   711     3 
  709   705   706   712     3 
  715   713   714   718     3 
  715   713   714   719     3 
  715   713   714   720     3 
  716   713   714   718     3 
  716   713   714   719     3 
  716   713   714   720     3 
  717   713   714   718     3 
  717   713   714   719     3 
  717   713   714   720     3 
  723   721   722   726     3 
  723   721   722   727     3 
  723   721   722   728     3 
  724   721   722   726     3 
  724   721   722   727     3 
  724   721   722   728     3 
  725   721   722   726     3 
  725   721   722   727     3 
  725   721   722   728     3 
  731   729   730   734     3 
  731   729   730   735     3 
  731   729   730   736     3 
  732   729   730   734     3 
  732   729   730   735     3 
  732   729   730   736     3 
  733   729   730   734     3 
  733   729   730   735     3 
  733   729   730   736     3 
  739   737   738   742     3 
  739   737   738   743     3 
  739   737   738   744     3 
  740   737   738   742     3 
  740   737   738   743     3 
  740   737   738   744     3 
  741   737   738   742     3 
  741   737   738   743     3 
  741   737   738   744     3 
  747   745   746   750     3 
  747   745   746   751     3 
  747   745   746   752     3 
  748   745   746   750     3 
  748   745   746   751     3 
  748   745   746   752     3 
  749   745   746   750     3 
  749   745   746   751     3 
  749   745   746   752     3 
  755   753   754   758     3 
  755   753   754   759     3 
  755   753   754   760     3 
  756   753   754   758     3 
  756   753   754   759     3 
  756   753   754   760     3 
  757   753   754   758     3 
  757   753   754   759     3 
  757   753   754   760     3 
  763   761   762   766     3 
  763   761   762   767     3 
  763   761   762   768     3 
  764   761   762   766     3 
  764   761   762   767     3 
  764   761   762   768     3 
  765   761   762   766     3 
  765   761   762   767     3 
  765   761   762   768     3 
  771   769   770   774     3 
  771   769   770   775     3 
  771   769   770   776     3 
  772   769   770   774     3 
  772   769   770   775     3 
  772   769   770   776     3 
  773   769   770   774     3 
  773   769   770   775     3 
  773   769   770   776     3 
  779   777   778   782     3 
  779   777   778   783     3 
  779   777   778   784     3 
  780   777   778   782     3 
  780   777   778   783     3 
  780   777   778   784     3 
  781   777   778   782     3 
  781   777   778   783     3 
  781   777   778   784     3 
  787   785   786   790     3 
  787   785   786   791     3 
  787   785   786   792     3 
  788   785   786   790     3 
  788   785   786   791     3 
  788   785   786   792     3 
  789   785   786   790     3 
  789   785   786   791     3 
  789   785   786   792     3 
  795   793   794   798     3 
  795   793   794   799     3 
  795   793   794   800     3 
  796   793   794   798     3 
  796   793   794   799     3 
  796   793   794   800     3 
  797   793   794   798     3 
  797   793   794   799     3 
  797   793   794   800     3 
  803   801   802   806     3 
  803   801   802   807     3 
  803   801   802   808     3 
  804   801   802   806     3 
  804   801   802   807     3 
  804   801   802   808     3 
  805   801   802   806     3 
  805   801   802   807     3 
  805   801   802   808     3 
  811   809   810   814     3 
  811   809   810   815     3 
  811   809   810   816     3 
  812   809   810   814     3 
  812   809   810   815     3 
  812   809   810   816     3 
  813   809   810   814     3 
  813   809   810   815     3 
  813   809   810   816     3 
  819   817   818   822     3 
  819   817   818   823     3 
  819   817   818   824     3 
  820   817   818   822     3 
  820   817   818   823     3 
  820   817   818   824     3 
  821   817   818   822     3 
  821   817   818   823     3 
  821   817   818   824     3 
  827   825   826   830     3 
  827   825   826   831     3 
  827   825   826   832     3 
  828   825   826   830     3 
  828   825   826   831     3 
  828   825   826   832     3 
  829   825   826   830     3 
  829   825   826   831     3 
  829   825   826   832     3 
  835   833   834   838     3 
  835   833   834   839     3 
  835   833   834   840     3 
  836   833   834   838     3 
  836   833   834   839     3 
  836   833   834   840     3 
  837   833   834   838     3 
  837   833   834   839     3 
  837   833   834   840     3 
  843   841   842   846     3 
  843   841   842   847     3 
  843   841   842   848     3 
  844   841   842   846     3 
  844   841   842   847     3 
  844   841   842   848     3 
  845   841   842   846     3 
  845   841   842   847     3 
  845   841   842   848     3 
  851   849   850   854     3 
  851   849   850   855     3 
  851   849   850   856     3 
  852   849   850   854     3 
  852   849   850   855     3 
  852   849   850   856     3 
  853   849   850   854     3 
  853   849   850   855     3 
  853   849   850   856     3 
  859   857   858   862     3 
  859   857   858   863     3 
  859   857   858   864     3 
  860   857   858   862     3 
  860   857   858   863     3 
  860   857   858   864     3 
  861   857   858   862     3 
  861   857   858   863     3 
  861   857   858   864     3 
  867   865   866   870     3 
  867   865   866   871     3 
  867   865   866   872     3 
  868   865   866   870     3 
  868   865   866   871     3 
  868   865   866   872     3 
  869   865   866   870     3 
  869   865   866   871     3 
  869   865   866   872     3 
  875   873   874   878     3 
  875   873   874   879     3 
  875   873   874   880     3 
  876   873   874   878     3 
  876   873   874   879     3 
  876   873   874   880     3 
  877   873   874   878     3 
  877   873   874   879     3 
  877   873   874   880     3 
  883   881   882   886     3 
  883   881   882   887     3 
  883   881   882   888     3 
  884   881   882   886     3 
  884   881   882   887     3 
  884   881   882   888     3 
  885   881   882   886     3 
  885   881   882   887     3 
  885   881   882   888     3 
  891   889   890   894     3 
  891   889   890   895     3 
  891   889   890   896     3 
  892   889   890   894     3 
  892   889   890   895     3 
  892   889   890   896     3 
  893   889   890   894     3 
  893   889   890   895     3 
  893   889   890   896     3 
  899   897   898   902     3 
  899   897   898   903     3 
  899   897   898   904     3 
  900   897   898   902     3 
  900   897   898   903     3 
  900   897   898   904     3 
  901   897   898   902     3 
  901   897   898   903     3 
  901   897   898   904     3 
  907   905   906   910     3 
  907   905   906   911     3 
  907   905   906   912     3 
  908   905   906   910     3 
  908   905   906   911     3 
  908   905   906   912     3 
  909   905   906   910     3 
  909   905   906   911     3 
  909   905   906   912     3 
  915   913   914   918     3 
  915   913   914   919     3 
  915   913   914   920     3 
  916   913   914   918     3 
  916   913   914   919     3 
  916   913   914   920     3 
  917   913   914   918     3 
  917   913   914   919     3 
  917   913   914   920     3 
  923   921   922   926     3 
  923   921   922   927     3 
  923   921   922   928     3 
  924   921   922   926     3 
  924   921   922   927     3 
  924   921   922   928     3 
  925   921   922   926     3 
  925   921   922   927     3 
  925   921   922   928     3 
  931   929   930   934     3 
  931   929   930   935     3 
  931   929   930   936     3 
  932   929   930   934     3 
  932   929   930   935     3 
  932   929   930   936     3 
  933   929   930   934     3 
  933   929   930   935     3 
  933   929   930   936     3 
  939   937   938   942     3 
  939   937   938   943     3 
  939   937   938   944     3 
  940   937   938   942     3 
  940   937   938   943     3 
  940   937   938   944     3 
  941   937   938   942     3 
  941   937   938   943     3 
  941   937   938   944     3 
  947   945   946   950     3 
  947   945   946   951     3 
  947   945   946   952     3 
  948   945   946   950     3 
  948   945   946   951     3 
  948   945   946   952     3 
  949   945   946   950     3 
  949   945   946   951     3 
  949   945   946   952     3 
  955   953   954   958     3 
  955   953   954   959     3 
  955   953   954   960     3 
  956   953   954   958     3 
  956   953   954   959     3 
  956   953   954   960     3 
  957   953   954   958     3 
  957   953   954   959     3 
  957   953   954   960     3 
  963   961   962   966     3 
  963   961   962   967     3 
  963   961   962   968     3 
  964   961   962   966     3 
  964   961   962   967     3 
  964   961   962   968     3 
  965   961   962   966     3 
  965   961   962   967     3 
  965   961   962   968     3 
  971   969   970   974     3 
  971   969   970   975     3 
  971   969   970   976     3 
  972   969   970   974     3 
  972   969   970   975     3 
  972   969   970   976     3 
  973   969   970   974     3 
  973   969   970   975     3 
  973   969   970   976     3 
  979   977   978   982     3 
  979   977   978   983     3 
  979   977   978   984     3 
  980   977   978   982     3 
  980   977   978   983     3 
  980   977   978   984     3 
  981   977   978   982     3 
  981   977   978   983     3 
  981   977   978   984     3 
  987   985   986   990     3 
  987   985   986   991     3 
  987   985   986   992     3 
  988   985   986   990     3 
  988   985   986   991     3 
  988   985   986   992     3 
  989   985   986   990     3 
  989   985   986   991     3 
  989   985   986   992     3 
  995   993   994   998     3 
  995   993   994   999     3 
  995   993   994  1000     3 
  996   993   994   998     3 
  996   993   994   999     3 
  996   993   994  1000     3 
  997   993   994   998     3 
  997   993   994   999     3 
  997   993   994  1000     3 

; Include Position restraint file

; Include water topology
[ moleculetype ]
; molname	nrexcl
SOL		2

[ atoms ]
;   nr   type  resnr residue  atom   cgnr     charge       mass
     1  opls_116   1    SOL     OW      1      -0.8476
     2  opls_117   1    SOL    HW1      1       0.4238
     3  opls_117   1    SOL    HW2      1       0.4238

[ settles ]
; OW	funct	doh	dhh
1	1	0.1	0.16330

[ exclusions ]
1	2	3
2	1	3
3	1	2


; Include topology for ions
;
; See literature references in forcefield.itp and atomtypes.atp
;

[ moleculetype ]
; molname   nrexcl
MG          1

[ atoms ]
; id    at type     res nr  residu name at name  cg nr  charge   mass
1       opls_411    1       MG          MG       1      2        24.30500

[ moleculetype ]
; molname   nrexcl
CA          1

[ atoms ]
; id    at type     res nr  residu name at name  cg nr  charge   mass
1       opls_412    1       CA          CA       1      2        40.08000

[ moleculetype ]
; molname   nrexcl
LI          1

[ atoms ]
; id    at type     res nr  residu name at name  cg nr  charge   mass
1       opls_406    1       LI          LI       1      1        6.941

[ moleculetype ]
; molname   nrexcl
NA          1

[ atoms ]
; id    at type     res nr  residu name at name  cg nr  charge   mass
1       opls_407    1       NA          NA       1      1        22.98977     

[ moleculetype ]
; molname   nrexcl
K           1

[ atoms ]
; id    at type     res nr  residu name at name  cg nr  charge   mass
1       opls_408    1       K           K        1      1        39.0983

[ moleculetype ]
; molname   nrexcl
RB          1

[ atoms ]
; id    at type     res nr  residu name at name  cg nr  charge   mass
1       opls_409    1       RB          RB       1      1        85.4678

[ moleculetype ]
; molname   nrexcl
CS          1

[ atoms ]
; id    at type     res nr  residu name at name  cg nr  charge   mass
1       opls_410    1       CS          CS       1      1        132.9054

[ moleculetype ]
; molname   nrexcl
F           1

[ atoms ]
; id    at type     res nr  residu name at name  cg nr  charge   mass
1       opls_400    1       F           F        1      -1       18.9984

[ moleculetype ]
; molname   nrexcl
CL      1

[ atoms ]
; id    at type     res nr  residu name at name  cg nr  charge   mass
1       opls_401    1       CL          CL       1      -1       35.45300

[ moleculetype ]
; molname   nrexcl
BR          1

[ atoms ]
; id    at type     res nr  residu name at name  cg nr  charge   mass
1       opls_402    1       BR          BR       1      -1       79.904

[ moleculetype ]
; molname   nrexcl
I           1

[ atoms ]
; id    at type     res nr  residu name at name  cg nr  charge   mass
1       opls_403    1       I           I        1      -1       126.9045

[ system ]
; Name
Great Red Owns Many ACres of Sand

[ molecules ]
; Compound        #mols
Other_chain_A       1
SOL              3596
