Great Red Owns Many ACres of Sand
11788
    1ETH     C1    1   0.919   4.747   4.329 -0.1963 -0.3011 -0.8178
    1ETH     C2    2   1.052   4.811   4.309 -0.9459 -0.5911 -0.9921
    1ETH     H1    3   0.905   4.656   4.387  1.2660 -0.2210 -0.3145
    1ETH     H2    4   0.886   4.724   4.228 -3.0022  1.1652 -0.3452
    1ETH     H3    5   0.847   4.818   4.370  0.3668  0.9618 -1.9424
    1ETH     H4    6   1.057   4.879   4.224 -1.0167  4.5556  2.6298
    1ETH     H5    7   1.128   4.733   4.305 -1.3066 -0.8998 -2.5750
    1ETH     H6    8   1.074   4.867   4.400  3.4180  0.8589 -2.7071
    2ETH     C1    9   4.226   0.364   2.947 -0.0152  0.1888  0.1988
    2ETH     C2   10   4.333   0.472   2.979 -0.1649 -0.1905  0.0705
    2ETH     H1   11   4.243   0.301   2.860 -2.3922 -1.8816  1.1077
    2ETH     H2   12   4.130   0.407   2.921  0.6520  0.8675 -1.2372
    2ETH     H3   13   4.202   0.292   3.026  2.9031 -1.2019 -0.0586
    2ETH     H4   14   4.330   0.538   2.892 -2.9468  0.1113  0.3030
    2ETH     H5   15   4.435   0.435   2.970 -0.4215 -0.3575 -6.2400
    2ETH     H6   16   4.319   0.516   3.078  2.5292  1.6374 -0.2506
    3ETH     C1   17   4.833   3.449   2.634 -0.3181 -1.1434  0.0548
    3ETH     C2   18   4.720   3.372   2.722  0.0705 -0.8508  0.0991
    3ETH     H1   19   4.897   3.512   2.696 -0.6713 -0.3006 -0.4299
    3ETH     H2   20   4.788   3.528   2.574 -2.3217  0.3440  3.2249
    3ETH     H3   21   4.882   3.375   2.571  0.2732 -2.2039  1.6665
    3ETH     H4   22   4.749   3.278   2.768  0.5128 -1.3557 -1.1767
    3ETH     H5   23   4.645   3.334   2.652 -0.5870  0.3318  0.1198
    3ETH     H6   24   4.681   3.441   2.798  2.2294  1.2679 -0.6162
    4ETH     C1   25   4.481   1.992   3.020 -0.1186  0.5959 -0.0447
    4ETH     C2   26   4.450   2.092   3.131  0.0357  0.7140 -0.4317
    4ETH     H1   27   4.412   1.991   2.935  0.8396  3.3224 -0.9811
    4ETH     H2   28   4.475   1.896   3.072 -0.0286  0.7176  0.1933
    4ETH     H3   29   4.584   1.995   2.984 -0.3028 -2.1838 -1.0123
    4ETH     H4   30   4.345   2.067   3.142  0.3812 -2.1918 -2.6578
    4ETH     H5   31   4.471   2.195   3.103  2.3941 -0.3799 -3.2100
    4ETH     H6   32   4.479   2.063   3.232 -1.1346  4.0692  1.0132
    5ETH     C1   33   3.660   4.371   1.476  0.5810 -0.2836  0.7657
    5ETH     C2   34   3.615   4.462   1.593 -0.4009 -0.9413 -1.3905
    5ETH     H1   35   3.737   4.300   1.507  3.8266  1.7733 -1.9144
    5ETH     H2   36   3.721   4.422   1.401 -0.4830 -1.2531 -0.8150
    5ETH     H3   37   3.576   4.323   1.426  1.2366  0.4608 -1.1592
    5ETH     H4   38   3.701   4.527   1.608 -0.3311 -1.1646 -0.7717
    5ETH     H5   39   3.592   4.412   1.687  1.4515 -0.7437 -0.7791
    5ETH     H6   40   3.531   4.521   1.558 -0.9138 -2.2445 -2.4393
    6ETH     C1   41   1.498   2.322   1.454  0.0415 -0.5055  0.4695
    6ETH     C2   42   1.629   2.257   1.509  0.5187  0.0016  1.1343
    6ETH     H1   43   1.475   2.291   1.352 -1.5860  3.3700 -0.5102
    6ETH     H2   44   1.507   2.430   1.456 -4.4836  0.1482 -2.1437
    6ETH     H3   45   1.412   2.310   1.520 -0.8516  2.8941  0.1261
    6ETH     H4   46   1.633   2.154   1.473 -2.3306 -0.5407  2.1480
    6ETH     H5   47   1.646   2.274   1.615 -1.0203  2.3360  1.0938
    6ETH     H6   48   1.716   2.308   1.467  1.0359 -0.8019  1.2269
    7ETH     C1   49   4.112   2.689   0.529 -0.6938 -0.2137 -0.3630
    7ETH     C2   50   4.234   2.785   0.544 -0.4432 -0.7180  0.0117
    7ETH     H1   51   4.031   2.713   0.461 -1.1596 -2.9301 -0.8526
    7ETH     H2   52   4.065   2.678   0.627  0.7365  2.1214  0.6825
    7ETH     H3   53   4.152   2.593   0.498 -0.5691 -0.5377  0.7397
    7ETH     H4   54   4.274   2.817   0.449 -2.2957  2.1149  0.0774
    7ETH     H5   55   4.318   2.754   0.606 -0.6946 -3.1277 -0.7493
    7ETH     H6   56   4.211   2.879   0.593  1.3638 -2.0848  3.8932
    8ETH     C1   57   0.967   1.693   1.602  0.1186 -1.4398  0.8692
    8ETH     C2   58   0.890   1.758   1.488  0.8343 -0.3911  0.3809
    8ETH     H1   59   1.032   1.617   1.559 -1.7362 -0.0586 -5.4082
    8ETH     H2   60   0.908   1.678   1.692 -1.1641 -1.6554  0.0214
    8ETH     H3   61   1.053   1.756   1.624 -1.2353  0.8147  0.1639
    8ETH     H4   62   0.953   1.802   1.410 -2.1280  2.3391 -0.7049
    8ETH     H5   63   0.817   1.828   1.530  0.5015 -0.1116 -0.6418
    8ETH     H6   64   0.823   1.698   1.427 -1.4393  1.4203  0.9255
    9ETH     C1   65   2.933   3.031   4.297 -0.5458  1.0197 -0.0381
    9ETH     C2   66   2.884   2.947   4.175  0.8414 -0.2215 -0.4353
    9ETH     H1   67   2.977   2.967   4.373 -1.7382 -0.5248 -0.5941
    9ETH     H2   68   2.847   3.066   4.353 -1.3791 -0.4985 -0.3241
    9ETH     H3   69   3.002   3.114   4.276  1.1055 -0.9503 -3.0799
    9ETH     H4   70   2.960   2.944   4.096  2.1724  0.6559  0.7751
    9ETH     H5   71   2.792   2.976   4.125 -1.0267 -0.8641  2.4387
    9ETH     H6   72   2.875   2.839   4.187  1.8367 -0.1529  1.1627
   10ETH     C1   73   4.591   0.807   4.818  1.2073 -0.6058 -0.3338
   10ETH     C2   74   4.600   0.952   4.776  0.1587 -0.2873  0.2457
   10ETH     H1   75   4.491   0.787   4.856  0.9582  1.1418  0.0124
   10ETH     H2   76   4.636   0.792   4.916  0.1437  2.9313  0.8262
   10ETH     H3   77   4.618   0.740   4.736  0.9520  0.4113 -1.2548
   10ETH     H4   78   4.596   1.025   4.857 -1.1835  1.7514 -1.5311
   10ETH     H5   79   4.502   0.973   4.732 -0.8497  0.7588  2.8092
   10ETH     H6   80   4.687   0.984   4.719  0.9608  3.5560  3.2337
   11ETH     C1   81   1.663   0.913   4.031  0.0725 -0.1057  0.5033
   11ETH     C2   82   1.769   0.914   3.918  0.7435 -0.7358 -0.1473
   11ETH     H1   83   1.714   0.931   4.125 -1.0237  3.0950  0.6079
   11ETH     H2   84   1.610   0.817   4.032 -1.4575  0.4993  5.2121
   11ETH     H3   85   1.587   0.990   4.019 -1.4974 -2.0093 -4.1072
   11ETH     H4   86   1.712   0.907   3.825 -1.1748 -0.5966  0.9563
   11ETH     H5   87   1.839   0.830   3.921  0.6574 -0.7988  2.7333
   11ETH     H6   88   1.812   1.013   3.933  2.8483 -1.6832  0.4996
   12ETH     C1   89   4.293   1.423   1.633  0.5347  0.4819  0.2466
   12ETH     C2   90   4.374   1.324   1.545  0.1720 -0.2110  0.0152
   12ETH     H1   91   4.347   1.516   1.653 -0.7723  1.1201  0.9104
   12ETH     H2   92   4.258   1.391   1.731  1.0812  4.3838  1.9328
   12ETH     H3   93   4.211   1.457   1.570  2.2626 -0.4859 -2.7534
   12ETH     H4   94   4.444   1.392   1.495  0.4083  1.2856  2.2562
   12ETH     H5   95   4.322   1.258   1.475 -0.7307  2.0300 -1.5561
   12ETH     H6   96   4.447   1.275   1.609  0.3936 -2.0515 -1.5533
   13ETH     C1   97   1.468   0.257   4.900  0.1866  0.3415  0.1939
   13ETH     C2   98   1.414   0.372   4.816 -1.5953  0.8859  0.2689
   13ETH     H1   99   1.391   0.223   4.970 -2.8160  1.8311 -2.1504
   13ETH     H2  100   1.564   0.275   4.948 -0.8203  2.7930  1.4805
   13ETH     H3  101   1.484   0.167   4.841  0.9443 -0.4803  1.5973
   13ETH     H4  102   1.322   0.340   4.768 -1.8173 -2.8624  2.8016
   13ETH     H5  103   1.494   0.402   4.748 -2.3392  0.2050 -0.9389
   13ETH     H6  104   1.385   0.456   4.880  0.7555  1.0686  1.2003
   14ETH     C1  105   1.226   3.337   3.750 -0.4087  0.3900 -0.2834
   14ETH     C2  106   1.170   3.329   3.900  0.4577  0.3782 -0.6188
   14ETH     H1  107   1.279   3.244   3.731 -0.8145  0.0377  0.2853
   14ETH     H2  108   1.295   3.419   3.727  0.9442 -0.1483  1.6038
   14ETH     H3  109   1.146   3.351   3.677  1.1515  0.3744 -2.0590
   14ETH     H4  110   1.141   3.233   3.941 -2.4391  0.9630 -1.0669
   14ETH     H5  111   1.083   3.392   3.920 -1.2390 -1.8379 -0.6781
   14ETH     H6  112   1.248   3.349   3.974 -0.3658  2.1080 -0.1654
   15ETH     C1  113   1.420   1.669   3.296 -0.1617  1.0565 -0.3674
   15ETH     C2  114   1.502   1.562   3.362  0.3521  0.1055 -0.4286
   15ETH     H1  115   1.461   1.770   3.299  1.6187  0.3506  0.1276
   15ETH     H2  116   1.326   1.670   3.350  1.6850 -0.3168  3.1822
   15ETH     H3  117   1.397   1.650   3.191 -3.3700 -0.1067  0.4512
   15ETH     H4  118   1.461   1.464   3.335  0.9028  0.3561 -2.3180
   15ETH     H5  119   1.512   1.562   3.470 -2.3481  2.3208 -0.0810
   15ETH     H6  120   1.599   1.568   3.311 -0.4341 -1.3828 -2.2220
   16ETH     C1  121   4.801   1.232   0.208 -0.6309 -0.6016  0.6074
   16ETH     C2  122   4.783   1.233   0.055  0.3386 -0.1797 -0.4366
   16ETH     H1  123   4.891   1.175   0.229 -2.2563 -2.6413  2.7234
   16ETH     H2  124   4.713   1.194   0.261 -1.8639  0.7458 -0.3893
   16ETH     H3  125   4.830   1.333   0.235 -0.6743 -0.5168  0.3423
   16ETH     H4  126   4.741   1.144   0.008  2.1179 -1.8650  0.9614
   16ETH     H5  127   4.879   1.241   0.005  0.5144 -0.6720 -0.1843
   16ETH     H6  128   4.728   1.320   0.020 -2.7886 -0.9801  2.0766
   17ETH     C1  129   0.336   4.540   0.053  0.0287  0.8896 -0.6764
   17ETH     C2  130   0.387   4.415   0.137 -0.2225 -0.3677  0.5306
   17ETH     H1  131   0.304   4.626   0.113 -0.6171  0.7768 -0.8473
   17ETH     H2  132   0.251   4.515  -0.010  0.2631  1.4267 -1.2229
   17ETH     H3  133   0.406   4.571  -0.024  0.6254 -1.3501 -1.0767
   17ETH     H4  134   0.466   4.446   0.205 -1.7301 -0.4019  2.3912
   17ETH     H5  135   0.427   4.343   0.066  0.8154  1.5838 -0.9553
   17ETH     H6  136   0.312   4.362   0.196  0.3386 -1.3006  0.4126
   18ETH     C1  137   3.692   3.531   2.683  0.4118 -0.0031 -1.3259
   18ETH     C2  138   3.820   3.451   2.652 -0.0049 -0.8792 -0.9854
   18ETH     H1  139   3.685   3.637   2.657 -0.8794  0.1398 -0.4597
   18ETH     H2  140   3.667   3.525   2.789  1.0605 -2.5300 -1.2448
   18ETH     H3  141   3.605   3.483   2.638 -3.1405  2.7339  1.9915
   18ETH     H4  142   3.855   3.430   2.551  0.0596 -0.6022 -1.0211
   18ETH     H5  143   3.808   3.351   2.693 -2.2014  0.0941  0.9302
   18ETH     H6  144   3.894   3.501   2.714 -2.4790  0.2303  1.2479
   19ETH     C1  145   2.221   3.084   3.901  0.5067 -0.6249  0.0870
   19ETH     C2  146   2.326   3.024   3.988 -0.1486 -0.2017  0.4166
   19ETH     H1  147   2.179   3.183   3.915 -2.2509 -1.7933  0.8365
   19ETH     H2  148   2.130   3.025   3.887  0.1099  0.0581 -0.2603
   19ETH     H3  149   2.257   3.061   3.801 -0.0004 -2.4973  0.2951
   19ETH     H4  150   2.312   3.065   4.088 -0.6330  0.7537 -0.0313
   19ETH     H5  151   2.430   3.045   3.963 -0.1029  0.5820  1.2010
   19ETH     H6  152   2.302   2.918   3.995  0.9441 -0.3566  2.3624
   20ETH     C1  153   1.656   2.933   0.164  0.4755 -0.7952 -0.0523
   20ETH     C2  154   1.692   2.990   0.296  0.1971  0.1364 -0.2548
   20ETH     H1  155   1.548   2.931   0.146 -0.5319 -2.6509  4.7234
   20ETH     H2  156   1.708   2.839   0.147 -0.3966 -1.6135  1.5623
   20ETH     H3  157   1.693   2.987   0.077  1.0087  0.1349  0.7220
   20ETH     H4  158   1.662   2.920   0.374 -1.8110  1.9979  0.7438
   20ETH     H5  159   1.647   3.089   0.305 -0.8906 -0.2403 -1.3319
   20ETH     H6  160   1.800   3.002   0.290  0.2501 -0.7915 -1.8243
   21ETH     C1  161   0.135   1.389   4.866 -0.3998  0.8298 -0.1176
   21ETH     C2  162  -0.006   1.440   4.833  0.1432 -0.2398 -0.9290
   21ETH     H1  163   0.127   1.295   4.921  0.2057 -1.8744 -4.2270
   21ETH     H2  164   0.199   1.464   4.913 -1.2354  1.0281  0.7711
   21ETH     H3  165   0.177   1.375   4.767 -1.6689 -1.3965 -0.4090
   21ETH     H4  166   0.002   1.540   4.789 -1.8875  1.1856  1.6317
   21ETH     H5  167  -0.067   1.452   4.923  0.9175 -2.5906 -0.0153
   21ETH     H6  168  -0.050   1.373   4.761 -0.9094 -1.1537  0.5162
   22ETH     C1  169   3.376   0.133   0.823 -0.1615 -0.1657 -0.1703
   22ETH     C2  170   3.524   0.116   0.864  0.3331  0.9964 -0.3892
   22ETH     H1  171   3.332   0.180   0.911 -2.1415 -1.5917 -0.3447
   22ETH     H2  172   3.350   0.037   0.780  0.3294  0.2490 -1.4402
   22ETH     H3  173   3.382   0.197   0.734 -1.6307 -0.8274 -0.7708
   22ETH     H4  174   3.560   0.213   0.898  0.9518  0.4441  0.5876
   22ETH     H5  175   3.585   0.082   0.781 -0.6789  0.4144 -0.9229
   22ETH     H6  176   3.528   0.059   0.957 -0.8336  1.5823  0.0487
   23ETH     C1  177   2.388   1.298   0.840 -0.1514 -0.3497 -0.1751
   23ETH     C2  178   2.480   1.179   0.860  0.6240  0.3229 -0.7632
   23ETH     H1  179   2.311   1.306   0.917 -0.0973 -4.5960  0.5840
   23ETH     H2  180   2.325   1.301   0.751 -0.9797  3.0577  0.3914
   23ETH     H3  181   2.446   1.390   0.845 -1.2184  0.5215 -2.5969
   23ETH     H4  182   2.538   1.171   0.768 -0.1499  0.5058 -1.2732
   23ETH     H5  183   2.409   1.098   0.865 -0.1659  1.0646  1.1974
   23ETH     H6  184   2.537   1.189   0.953 -0.3827  1.6372 -0.2508
   24ETH     C1  185   4.036   4.465   0.789 -0.1226  0.7263 -0.2554
   24ETH     C2  186   4.091   4.327   0.813 -0.4948 -0.2370  0.4256
   24ETH     H1  187   4.025   4.536   0.871  0.1475  1.2198 -0.6368
   24ETH     H2  188   3.939   4.444   0.744  1.5044 -2.4564 -2.6143
   24ETH     H3  189   4.095   4.532   0.726  0.1649  0.1604 -0.5959
   24ETH     H4  190   4.085   4.271   0.719  0.1887 -1.1634  0.9145
   24ETH     H5  191   4.017   4.290   0.884  0.4795 -2.3982  0.4016
   24ETH     H6  192   4.190   4.302   0.851 -0.1590  0.1465 -0.1750
   25ETH     C1  193   0.501   0.175   2.698 -0.1241 -0.4374 -0.7367
   25ETH     C2  194   0.600   0.210   2.596 -0.4875 -0.6340  0.9448
   25ETH     H1  195   0.458   0.261   2.750  1.4206  0.5478 -1.0211
   25ETH     H2  196   0.552   0.119   2.777  1.5619 -0.0569 -1.5129
   25ETH     H3  197   0.415   0.127   2.651 -1.4177 -0.9220  1.9146
   25ETH     H4  198   0.694   0.246   2.639  1.0460 -2.3275 -0.7673
   25ETH     H5  199   0.575   0.286   2.521  2.5418  0.9531  1.3698
   25ETH     H6  200   0.607   0.123   2.531  0.4220  0.6581 -0.7742
   26ETH     C1  201   1.111   4.091   4.217  0.4396  0.2821  0.1381
   26ETH     C2  202   1.130   4.249   4.225  0.1464  0.1857  0.5720
   26ETH     H1  203   1.107   4.070   4.111  0.6884  1.2800 -0.0791
   26ETH     H2  204   1.020   4.067   4.272 -1.0868  1.5350 -1.7124
   26ETH     H3  205   1.189   4.028   4.262 -0.6737 -1.7682 -0.6493
   26ETH     H4  206   1.052   4.291   4.161 -0.8748 -3.9784 -1.2295
   26ETH     H5  207   1.221   4.294   4.185 -0.7308  2.4827  1.0251
   26ETH     H6  208   1.118   4.284   4.328 -0.4767  0.9152  0.2605
   27ETH     C1  209   4.805   2.049   1.702  1.0736 -0.0755 -0.4061
   27ETH     C2  210   4.755   2.174   1.630 -0.1789 -0.1967  0.3648
   27ETH     H1  211   4.718   1.991   1.733  1.6905 -0.4571  0.6601
   27ETH     H2  212   4.862   2.071   1.793  0.8283  2.1418 -0.7330
   27ETH     H3  213   4.869   1.991   1.636 -1.8946 -2.0998 -1.7320
   27ETH     H4  214   4.816   2.264   1.631 -1.7663  0.9733 -0.9875
   27ETH     H5  215   4.656   2.199   1.669  0.9961  2.7537  1.8295
   27ETH     H6  216   4.739   2.157   1.524 -0.2841  0.2187  0.3089
   28ETH     C1  217   3.054   0.162   0.244  0.1861  0.3614  0.3118
   28ETH     C2  218   3.125   0.289   0.268 -0.7829  0.0043 -0.5815
   28ETH     H1  219   3.107   0.084   0.298 -1.8413  0.6858  2.9703
   28ETH     H2  220   3.052   0.135   0.138  0.9948  2.0794 -0.1793
   28ETH     H3  221   2.960   0.161   0.299  1.3278  0.9955  2.3892
   28ETH     H4  222   3.072   0.382   0.289 -2.1142 -0.5198 -1.4725
   28ETH     H5  223   3.205   0.303   0.195  0.2022  3.2914  0.9513
   28ETH     H6  224   3.181   0.284   0.361 -3.9447  2.8372  1.6925
   29ETH     C1  225   0.668   4.078   3.411  0.5018 -0.6264  0.2189
   29ETH     C2  226   0.814   4.118   3.435 -0.4089  0.1292  0.8610
   29ETH     H1  227   0.661   4.011   3.326  0.4455  0.6220 -0.7883
   29ETH     H2  228   0.611   4.165   3.378 -1.1734 -1.1332  1.5966
   29ETH     H3  229   0.621   4.045   3.504 -0.3962  4.3960  1.8739
   29ETH     H4  230   0.831   4.204   3.370 -2.8358  1.3378  1.6718
   29ETH     H5  231   0.875   4.037   3.395 -2.2846 -0.9145 -0.0168
   29ETH     H6  232   0.851   4.161   3.528  1.0055  3.4398 -1.0827
   30ETH     C1  233   4.460   3.785   2.871  0.8108  1.0223 -0.4474
   30ETH     C2  234   4.433   3.776   3.024 -0.3874 -0.4004  0.1946
   30ETH     H1  235   4.443   3.893   2.863 -1.0278  0.9737  1.7340
   30ETH     H2  236   4.377   3.734   2.823  0.8124 -0.0711  0.6794
   30ETH     H3  237   4.561   3.761   2.839  0.8470  1.4106 -0.6346
   30ETH     H4  238   4.506   3.837   3.077 -2.3191  0.7493  1.6965
   30ETH     H5  239   4.429   3.677   3.070 -0.0069 -0.2275  0.6077
   30ETH     H6  240   4.329   3.808   3.034 -0.6637 -1.1868 -0.0431
   31ETH     C1  241   2.502   4.669   0.491  0.6417  0.2205 -0.5960
   31ETH     C2  242   2.510   4.808   0.562 -0.3625  0.3749 -0.2202
   31ETH     H1  243   2.449   4.600   0.556 -0.0910  2.0070  0.7953
   31ETH     H2  244   2.603   4.634   0.470 -0.2961 -5.6120  2.4319
   31ETH     H3  245   2.444   4.665   0.399  0.9991  0.3346 -0.8314
   31ETH     H4  246   2.413   4.857   0.567 -0.0313  0.9804  0.4088
   31ETH     H5  247   2.565   4.879   0.501 -1.3436  0.3905 -1.1149
   31ETH     H6  248   2.554   4.801   0.662 -0.0375 -2.5299 -0.4739
   32ETH     C1  249   2.758   1.015   2.660 -0.3887 -0.0197 -0.3405
   32ETH     C2  250   2.907   0.964   2.691  0.6187 -1.0827  0.1179
   32ETH     H1  251   2.689   0.931   2.670  0.1079 -0.4829 -0.7267
   32ETH     H2  252   2.734   1.052   2.560 -2.7432  2.3391  0.9612
   32ETH     H3  253   2.723   1.085   2.736 -1.1516  0.3201 -0.9949
   32ETH     H4  254   2.953   0.901   2.614  6.4986  1.7158  0.7918
   32ETH     H5  255   2.923   0.934   2.794  1.5001  2.1173  1.0083
   32ETH     H6  256   2.976   1.049   2.690  1.0811 -1.4517 -0.2277
   33ETH     C1  257   2.901   2.226   2.130  0.3448 -0.1991  0.2029
   33ETH     C2  258   2.902   2.169   1.989  0.2377 -0.0365 -1.2607
   33ETH     H1  259   2.954   2.321   2.130 -0.4235  0.2372  0.7548
   33ETH     H2  260   2.943   2.171   2.214 -1.8730  3.7197  4.3325
   33ETH     H3  261   2.796   2.231   2.158  1.6687  1.4473  6.2863
   33ETH     H4  262   3.000   2.137   1.955  0.6686  0.0690 -0.1717
   33ETH     H5  263   2.860   2.255   1.938  2.3913  2.1624  0.4252
   33ETH     H6  264   2.831   2.087   1.996 -2.5089  2.3201  1.8838
   34ETH     C1  265   3.871   3.678   1.726  0.5656 -0.4549  0.6622
   34ETH     C2  266   3.850   3.674   1.568  0.5666  0.2742 -0.8224
   34ETH     H1  267   3.825   3.768   1.768  1.7780  0.6033 -0.1875
   34ETH     H2  268   3.975   3.678   1.758  1.5404  1.9643 -2.0110
   34ETH     H3  269   3.809   3.595   1.762 -1.5670  0.8884  0.2819
   34ETH     H4  270   3.910   3.600   1.515  0.6587  0.4794 -1.0046
   34ETH     H5  271   3.865   3.765   1.510 -1.3617  0.2196 -1.4917
   34ETH     H6  272   3.742   3.660   1.559  0.3278  0.8436  0.7653
   35ETH     C1  273   0.171   1.010   4.088  0.0584  0.1006  0.9726
   35ETH     C2  274   0.141   0.907   3.974 -0.8250 -0.5519  0.2142
   35ETH     H1  275   0.266   1.048   4.050  0.5730 -1.4865  0.5722
   35ETH     H2  276   0.193   0.963   4.184  0.2631 -2.3285 -0.1871
   35ETH     H3  277   0.098   1.090   4.102 -1.8098 -0.9918 -1.6648
   35ETH     H4  278   0.057   0.838   3.983 -1.4607 -0.0258 -1.2670
   35ETH     H5  279   0.225   0.838   3.968 -0.3932  0.0285 -0.5943
   35ETH     H6  280   0.119   0.957   3.880  2.0571 -0.9170 -0.7563
   36ETH     C1  281   1.677   2.191   0.432 -0.3185 -0.3924  0.1494
   36ETH     C2  282   1.585   2.075   0.374  0.2000 -0.5218  0.4290
   36ETH     H1  283   1.649   2.210   0.536 -1.5441  4.2894 -0.7886
   36ETH     H2  284   1.679   2.282   0.372 -2.0492  1.4939  2.6909
   36ETH     H3  285   1.780   2.164   0.414 -0.3051 -2.4766  2.7170
   36ETH     H4  286   1.625   1.989   0.429  0.6912  0.4028  1.5617
   36ETH     H5  287   1.572   2.062   0.267  0.7873 -4.2463  0.6819
   36ETH     H6  288   1.489   2.108   0.414  2.9494  3.1750  5.1070
   37ETH     C1  289   0.429   2.546   0.087  0.3978 -0.2660 -0.4150
   37ETH     C2  290   0.432   2.454   0.203  0.0889  0.4612  0.7548
   37ETH     H1  291   0.530   2.549   0.044  2.0470  2.1291  3.1219
   37ETH     H2  292   0.421   2.650   0.118 -3.2977  0.6280 -3.5212
   37ETH     H3  293   0.366   2.518   0.002 -1.2827  0.1172  0.6666
   37ETH     H4  294   0.456   2.352   0.173  0.8660  0.1278  2.3893
   37ETH     H5  295   0.328   2.451   0.233 -0.4597 -0.5111 -1.1089
   37ETH     H6  296   0.505   2.479   0.280  3.2514 -1.5118 -1.3506
   38ETH     C1  297   0.518   1.923   2.066  0.0458  0.6579 -0.5468
   38ETH     C2  298   0.467   1.780   2.056 -0.0026 -0.1767 -0.0073
   38ETH     H1  299   0.522   1.952   2.171  3.6974  0.2597 -0.4417
   38ETH     H2  300   0.462   1.979   1.991  1.0657 -0.2222 -2.0410
   38ETH     H3  301   0.623   1.930   2.039  0.3235  0.6890  0.4984
   38ETH     H4  302   0.368   1.774   2.102  0.7317  0.0385  1.6747
   38ETH     H5  303   0.539   1.722   2.113 -0.7109  1.0896  2.3084
   38ETH     H6  304   0.452   1.749   1.952 -0.4265  2.1008 -0.6691
   39ETH     C1  305   1.151   2.052   1.695  0.5947 -0.3734 -0.7643
   39ETH     C2  306   1.131   2.194   1.739  0.0505 -0.5699 -0.0078
   39ETH     H1  307   1.212   2.068   1.606  2.4144  2.5803  0.8601
   39ETH     H2  308   1.054   2.015   1.661 -0.6249  0.4722  1.5444
   39ETH     H3  309   1.207   1.979   1.753 -3.4418 -4.8892 -1.8915
   39ETH     H4  310   1.056   2.249   1.682 -1.3867 -0.7382  1.6182
   39ETH     H5  311   1.215   2.262   1.747 -0.2807 -0.1555  0.0003
   39ETH     H6  312   1.083   2.209   1.836  0.1077 -1.7583  0.2204
   40ETH     C1  313   0.697   3.605   3.531 -0.3745 -0.4226  0.0473
   40ETH     C2  314   0.648   3.751   3.515 -0.2421  0.1603 -0.4152
   40ETH     H1  315   0.676   3.584   3.636  2.6165  2.3856  1.4166
   40ETH     H2  316   0.799   3.600   3.493 -0.6929  0.0294 -0.8909
   40ETH     H3  317   0.644   3.545   3.458  0.3267  1.4376 -2.1113
   40ETH     H4  318   0.648   3.789   3.413  0.0472  1.9818  0.2261
   40ETH     H5  319   0.700   3.822   3.579  2.1203 -0.9188 -1.0161
   40ETH     H6  320   0.552   3.771   3.562  0.2098  0.8621  0.2258
   41ETH     C1  321   2.679   1.168   2.290 -0.5991 -0.8221  0.3256
   41ETH     C2  322   2.550   1.154   2.367  1.0990 -0.2732  0.9651
   41ETH     H1  323   2.672   1.125   2.190 -0.7753 -0.7143  0.2911
   41ETH     H2  324   2.760   1.114   2.340 -0.1113  0.1644  0.6148
   41ETH     H3  325   2.700   1.272   2.265 -1.8321 -0.7963 -0.7555
   41ETH     H4  326   2.562   1.210   2.460 -2.5045 -0.9770  1.9977
   41ETH     H5  327   2.527   1.052   2.397  0.3696 -0.2155  0.6046
   41ETH     H6  328   2.466   1.207   2.323  0.6828 -1.2318  0.5872
   42ETH     C1  329   0.553   2.916   0.151 -0.2289  1.0702 -0.4240
   42ETH     C2  330   0.528   2.864   0.293 -0.1319 -0.3133  0.2074
   42ETH     H1  331   0.658   2.904   0.125 -0.7827  1.3601 -3.0286
   42ETH     H2  332   0.533   3.023   0.152  0.4127  1.3222 -3.8256
   42ETH     H3  333   0.500   2.848   0.084 -3.5750  2.9986 -0.0001
   42ETH     H4  334   0.606   2.792   0.315  0.9848  1.5173  2.8255
   42ETH     H5  335   0.423   2.844   0.315 -1.0315  2.2923 -1.2970
   42ETH     H6  336   0.545   2.934   0.375  2.0791 -0.7889  0.2132
   43ETH     C1  337   1.794   2.375   1.055  0.5650 -0.4158 -0.2572
   43ETH     C2  338   1.745   2.518   1.062  0.6118 -0.5268  0.3368
   43ETH     H1  339   1.895   2.363   1.017  0.6163 -0.8250  0.0049
   43ETH     H2  340   1.731   2.305   1.000 -3.9840  3.4830 -0.6984
   43ETH     H3  341   1.781   2.335   1.156  0.8745  4.0900  1.8378
   43ETH     H4  342   1.794   2.577   1.139 -2.1393 -0.3789  2.1257
   43ETH     H5  343   1.643   2.520   1.101  0.4361  1.2373 -0.1341
   43ETH     H6  344   1.737   2.569   0.965 -1.2189 -0.2687  0.5720
   44ETH     C1  345   1.992   4.329   2.689 -0.6495  0.6293  0.6678
   44ETH     C2  346   2.060   4.463   2.720  0.3559 -0.1714 -0.8036
   44ETH     H1  347   1.988   4.264   2.777  1.8593 -1.1704 -0.4112
   44ETH     H2  348   2.046   4.280   2.608 -0.1976  2.8885 -0.4567
   44ETH     H3  349   1.887   4.325   2.659 -0.6958 -0.9429  0.9266
   44ETH     H4  350   2.078   4.519   2.629 -0.9950  2.3572  0.3826
   44ETH     H5  351   2.163   4.442   2.748  0.8353  0.8778 -1.7218
   44ETH     H6  352   2.007   4.531   2.787  1.9687  1.1325 -0.8171
   45ETH     C1  353   4.936   3.362   3.258 -0.8205  0.0224 -0.0671
   45ETH     C2  354   4.892   3.288   3.133 -0.9837 -0.0078  1.3222
   45ETH     H1  355   4.875   3.449   3.279 -0.8450 -0.1990  0.8423
   45ETH     H2  356   5.034   3.402   3.232 -2.1749  1.7165 -3.1753
   45ETH     H3  357   4.961   3.294   3.340 -3.0276  0.3753  0.9849
   45ETH     H4  358   4.853   3.189   3.160  4.4513 -2.3834  1.8333
   45ETH     H5  359   4.969   3.273   3.057 -0.0271  2.3645  1.7341
   45ETH     H6  360   4.802   3.343   3.105  0.0064  0.7826 -0.4950
   46ETH     C1  361   0.328   4.671   3.395 -0.8842 -0.1996 -0.2896
   46ETH     C2  362   0.233   4.600   3.485  0.4332 -0.1085  1.1407
   46ETH     H1  363   0.432   4.690   3.425 -0.0370  2.1938 -4.0344
   46ETH     H2  364   0.310   4.777   3.379  0.8175  0.4160  1.4559
   46ETH     H3  365   0.329   4.616   3.300  2.8926 -1.5380  0.3166
   46ETH     H4  366   0.260   4.498   3.511 -1.9278 -1.5346 -1.5238
   46ETH     H5  367   0.133   4.597   3.444  1.5626 -0.1729 -1.8708
   46ETH     H6  368   0.218   4.652   3.580 -2.8197 -1.6783  1.6165
   47ETH     C1  369   1.320   1.739   1.390 -0.0667  0.0550  0.8747
   47ETH     C2  370   1.367   1.865   1.311 -0.4968 -0.0278 -0.3899
   47ETH     H1  371   1.224   1.755   1.440  0.3044  1.0456  1.2934
   47ETH     H2  372   1.388   1.714   1.471  0.7165  1.7831  0.7893
   47ETH     H3  373   1.313   1.639   1.347  0.3007 -1.2083  3.5314
   47ETH     H4  374   1.312   1.889   1.220  0.8900 -2.7243 -2.0630
   47ETH     H5  375   1.473   1.863   1.285  0.4896  1.0500  2.9986
   47ETH     H6  376   1.356   1.949   1.380  5.4860 -1.0569  2.5802
   48ETH     C1  377   4.989   4.435   2.357  0.6388  0.1332 -0.9035
   48ETH     C2  378   4.914   4.309   2.403 -0.0552 -0.7571 -0.1553
   48ETH     H1  379   5.090   4.417   2.320 -0.0320 -4.1937 -1.1386
   48ETH     H2  380   4.982   4.507   2.439  0.9742 -0.8870  0.0472
   48ETH     H3  381   4.932   4.474   2.273 -2.8924 -2.6787 -0.0557
   48ETH     H4  382   4.962   4.274   2.494 -1.8715 -0.3102  1.0271
   48ETH     H5  383   4.922   4.232   2.326 -1.4097 -0.7650 -0.3126
   48ETH     H6  384   4.807   4.324   2.415 -0.6319 -4.9945  1.9641
   49ETH     C1  385   0.857   4.429   3.152  0.3618  0.0187  0.5434
   49ETH     C2  386   0.810   4.497   3.287  0.4061 -0.4766  0.3020
   49ETH     H1  387   0.869   4.321   3.159 -0.5401 -0.1957 -0.9139
   49ETH     H2  388   0.954   4.457   3.110  0.7500 -2.2872 -0.2209
   49ETH     H3  389   0.782   4.461   3.080  1.6925  3.1607  0.3956
   49ETH     H4  390   0.799   4.602   3.260  2.5086  0.0992  1.5110
   49ETH     H5  391   0.885   4.493   3.366  0.8293  0.5915 -0.0261
   49ETH     H6  392   0.723   4.444   3.323 -0.8213  1.7909  0.8813
   50ETH     C1  393   2.168   2.939   0.181 -0.4152  0.3127 -0.2166
   50ETH     C2  394   2.063   2.861   0.102  0.0038  0.4685 -0.2076
   50ETH     H1  395   2.102   3.003   0.240  0.1134 -0.2874  1.0565
   50ETH     H2  396   2.228   3.011   0.124  0.5413 -0.5211 -0.2812
   50ETH     H3  397   2.243   2.888   0.240 -1.7070  0.4666  1.6512
   50ETH     H4  398   1.989   2.920   0.047 -1.0614 -1.8519 -1.4508
   50ETH     H5  399   2.012   2.774   0.143 -0.7632 -1.1780 -4.1344
   50ETH     H6  400   2.114   2.811   0.019 -1.4469 -2.4820  0.5163
   51ETH     C1  401   2.065   3.780   2.869  0.2250 -0.3804 -0.6076
   51ETH     C2  402   1.977   3.803   2.993  0.2882 -0.1815  0.2771
   51ETH     H1  403   2.115   3.876   2.858 -0.5098  0.3187  1.4872
   51ETH     H2  404   2.007   3.766   2.778  1.7633 -2.3397 -1.3456
   51ETH     H3  405   2.144   3.708   2.890  0.6394  0.7805  2.4040
   51ETH     H4  406   2.043   3.830   3.075 -0.2022 -3.3187  1.8527
   51ETH     H5  407   1.921   3.716   3.026 -0.1852  0.6788  1.8506
   51ETH     H6  408   1.905   3.883   2.973 -0.4015 -0.2800  2.1765
   52ETH     C1  409   3.035   3.945   2.331 -0.3537  0.9749 -0.8079
   52ETH     C2  410   3.182   3.972   2.355  0.5917 -0.3770 -0.1764
   52ETH     H1  411   3.009   4.001   2.241  0.6061 -1.9830 -3.0647
   52ETH     H2  412   2.976   3.964   2.421  2.3483  0.7589  1.1525
   52ETH     H3  413   3.006   3.841   2.317 -0.8545  0.9421  0.3691
   52ETH     H4  414   3.229   3.890   2.301  0.2091 -0.6725 -0.0724
   52ETH     H5  415   3.211   3.979   2.460  0.2585  1.4154 -0.1778
   52ETH     H6  416   3.197   4.068   2.307 -1.1824  1.2877  2.2771
   53ETH     C1  417   1.898   3.801   2.491 -0.7786  1.4986  0.2094
   53ETH     C2  418   2.045   3.825   2.465  0.0375 -0.7452 -0.0884
   53ETH     H1  419   1.840   3.864   2.423 -1.9256 -1.4981 -1.8093
   53ETH     H2  420   1.877   3.861   2.580 -1.2384 -1.5355  2.3067
   53ETH     H3  421   1.846   3.708   2.514 -2.7298  2.3809 -0.3590
   53ETH     H4  422   2.091   3.775   2.550 -3.2031 -2.6206  0.7379
   53ETH     H5  423   2.063   3.930   2.485 -2.0081 -0.0181 -1.7584
   53ETH     H6  424   2.079   3.779   2.372  0.5962  0.4880 -0.5202
   54ETH     C1  425   2.336   0.902   2.246  0.6874 -0.2368 -0.5847
   54ETH     C2  426   2.381   0.988   2.127 -0.1143  0.1770  1.0199
   54ETH     H1  427   2.297   0.803   2.221 -0.2472 -0.4000  1.2958
   54ETH     H2  428   2.250   0.952   2.291  1.8513  0.7303  0.6394
   54ETH     H3  429   2.402   0.898   2.333  1.9843  0.2463 -1.5163
   54ETH     H4  430   2.370   1.093   2.154  0.9771  0.8168 -0.8424
   54ETH     H5  431   2.331   0.962   2.033  0.4165 -1.3723  1.1288
   54ETH     H6  432   2.484   0.960   2.105 -0.4118 -0.6647  0.6158
   55ETH     C1  433   3.984   1.885   3.218  0.7916 -0.0558  0.4744
   55ETH     C2  434   3.909   1.963   3.112 -0.8806  0.3753 -0.4324
   55ETH     H1  435   3.930   1.884   3.313  0.0714  0.6744  0.0778
   55ETH     H2  436   4.066   1.947   3.257 -0.3213 -0.0707  3.0499
   55ETH     H3  437   4.000   1.786   3.175 -4.0935 -1.1653  0.6343
   55ETH     H4  438   3.997   1.983   3.051  0.7280  2.3774  2.3221
   55ETH     H5  439   3.856   2.045   3.160  3.2333  3.6635 -0.8517
   55ETH     H6  440   3.839   1.889   3.074  1.8979 -2.3812 -0.6024
   56ETH     C1  441   0.144   0.581   4.213  0.8314  0.8268  0.6273
   56ETH     C2  442   0.269   0.516   4.148 -0.0260 -0.2393 -0.4663
   56ETH     H1  443   0.165   0.640   4.302 -1.2164 -1.7187  3.0066
   56ETH     H2  444   0.092   0.492   4.250  3.0590 -0.6523  0.4115
   56ETH     H3  445   0.057   0.622   4.163 -0.1252  2.0004  3.0653
   56ETH     H4  446   0.361   0.522   4.208  1.7615 -1.9838 -2.8179
   56ETH     H5  447   0.293   0.585   4.067 -2.3656  1.0615 -0.1394
   56ETH     H6  448   0.258   0.411   4.122  1.5182 -0.7328  0.6664
   57ETH     C1  449   2.082   1.909   4.602  0.3811 -0.1640 -0.2342
   57ETH     C2  450   2.105   1.818   4.476 -0.2630 -0.0735  0.7642
   57ETH     H1  451   2.003   1.867   4.663  0.0831 -0.6499 -0.9417
   57ETH     H2  452   2.060   2.015   4.588  4.9532  0.6268 -3.5366
   57ETH     H3  453   2.177   1.905   4.654  0.3482  1.6871  0.0314
   57ETH     H4  454   2.137   1.725   4.522 -3.0868 -0.4859  2.1411
   57ETH     H5  455   2.184   1.866   4.418 -3.2339  0.7060 -2.9993
   57ETH     H6  456   2.010   1.817   4.422 -1.2244 -1.6328  2.3786
   58ETH     C1  457   3.056   2.052   2.488 -0.2266 -0.7617  0.5706
   58ETH     C2  458   3.126   2.083   2.628  0.6607 -0.0388  0.7610
   58ETH     H1  459   3.085   2.124   2.411  0.9705  1.6854  3.0980
   58ETH     H2  460   2.949   2.035   2.478 -0.3497  1.0828 -2.5636
   58ETH     H3  461   3.098   1.956   2.459 -0.8487 -2.0365  3.5696
   58ETH     H4  462   3.089   2.174   2.677 -0.7787 -0.4064  0.3946
   58ETH     H5  463   3.234   2.084   2.617  0.6074 -0.7574  0.1222
   58ETH     H6  464   3.118   1.997   2.695  0.8658 -1.7942 -1.3577
   59ETH     C1  465   1.498   0.868   0.335  0.6474  0.1869 -0.3255
   59ETH     C2  466   1.382   0.861   0.236  0.3237 -0.0089 -0.0113
   59ETH     H1  467   1.582   0.801   0.317 -0.2970 -2.3207  3.4361
   59ETH     H2  468   1.463   0.832   0.432  3.1607 -0.9177  0.2653
   59ETH     H3  469   1.526   0.972   0.354  1.1844  0.8800 -4.1447
   59ETH     H4  470   1.300   0.928   0.260 -0.7036 -1.4545  0.6481
   59ETH     H5  471   1.329   0.766   0.249  1.7086 -0.6858  1.0475
   59ETH     H6  472   1.410   0.878   0.132 -2.2601  0.7149 -0.6373
   60ETH     C1  473   0.506   1.173   0.253  0.2965  0.2634  0.0091
   60ETH     C2  474   0.656   1.191   0.271  0.1250  0.2617  1.2850
   60ETH     H1  475   0.472   1.112   0.337  0.7875 -0.7782 -0.5237
   60ETH     H2  476   0.487   1.124   0.157  1.6949  0.8363 -0.5963
   60ETH     H3  477   0.464   1.273   0.251 -0.6761 -0.1157  0.9404
   60ETH     H4  478   0.695   1.150   0.178  0.1435  3.1147 -0.0861
   60ETH     H5  479   0.708   1.160   0.361  1.1333  1.3716  1.1062
   60ETH     H6  480   0.689   1.294   0.256  1.8684 -0.7007 -3.0939
   61ETH     C1  481   0.680   0.954   4.337  0.4308 -0.5272 -0.1062
   61ETH     C2  482   0.684   1.010   4.481  0.1669  0.4697 -0.8166
   61ETH     H1  483   0.694   0.847   4.323  0.7788 -1.2780  4.4639
   61ETH     H2  484   0.781   0.982   4.307  0.1980 -1.6053 -2.0864
   61ETH     H3  485   0.612   1.019   4.282  0.2405 -1.5086 -1.0726
   61ETH     H4  486   0.651   0.936   4.554  1.3772  1.3726  0.7045
   61ETH     H5  487   0.611   1.091   4.489 -0.8112 -0.4709 -0.0572
   61ETH     H6  488   0.786   1.041   4.507 -1.2308  2.7808  2.7043
   62ETH     C1  489   4.474   0.789   1.693  0.3208  0.4041 -0.3122
   62ETH     C2  490   4.488   0.932   1.657  0.8044 -0.5305 -0.3900
   62ETH     H1  491   4.568   0.760   1.741 -1.3619 -3.9403  0.8088
   62ETH     H2  492   4.474   0.737   1.597  1.7165  1.4486 -0.9193
   62ETH     H3  493   4.380   0.770   1.744 -0.7188 -0.2182 -2.3667
   62ETH     H4  494   4.405   0.976   1.602  0.6035  0.2449  0.4996
   62ETH     H5  495   4.582   0.932   1.601  3.1510  4.7570  2.6611
   62ETH     H6  496   4.501   0.973   1.758  1.9717 -5.2730  1.6380
   63ETH     C1  497   3.781   4.023   1.795 -0.6823  0.9838 -0.2429
   63ETH     C2  498   3.915   4.057   1.728 -0.6865  0.7239 -0.0968
   63ETH     H1  499   3.732   4.112   1.834 -1.8573  0.7092 -1.0494
   63ETH     H2  500   3.794   3.951   1.876 -1.0738  0.1601 -0.8985
   63ETH     H3  501   3.699   3.983   1.736 -0.0630  1.3659 -1.3890
   63ETH     H4  502   3.951   3.968   1.676 -2.9779  1.2588 -2.8119
   63ETH     H5  503   3.994   4.070   1.802  0.8490 -1.4332 -1.2291
   63ETH     H6  504   3.904   4.145   1.664 -3.9845 -0.7031 -1.7244
   64ETH     C1  505   2.160   2.636   2.697 -0.3844 -0.3752  0.6332
   64ETH     C2  506   2.037   2.618   2.610 -0.4325  0.3804  0.0990
   64ETH     H1  507   2.136   2.648   2.802  0.8148 -0.5381  0.9364
   64ETH     H2  508   2.213   2.720   2.654  0.5220 -1.8314 -1.2457
   64ETH     H3  509   2.219   2.545   2.691  0.6849  0.4013 -1.5394
   64ETH     H4  510   1.961   2.558   2.661  0.3134  1.4002  2.5008
   64ETH     H5  511   2.072   2.580   2.514 -1.3898  1.9541 -0.9191
   64ETH     H6  512   1.990   2.716   2.599 -1.6049  0.0176  1.5448
   65ETH     C1  513   2.683   3.284   1.582 -0.0251 -0.7743 -0.0646
   65ETH     C2  514   2.729   3.429   1.548 -0.2354 -1.1180 -0.7536
   65ETH     H1  515   2.742   3.253   1.668 -0.1876  1.9310  1.1352
   65ETH     H2  516   2.707   3.238   1.486  2.7711  0.6739 -0.1833
   65ETH     H3  517   2.576   3.273   1.600  0.0847  1.3984  2.5002
   65ETH     H4  518   2.782   3.482   1.628 -0.5230 -0.8365 -0.7477
   65ETH     H5  519   2.655   3.501   1.513  0.1840 -0.4027 -0.2091
   65ETH     H6  520   2.813   3.418   1.480 -1.2102  0.6214 -2.3441
   66ETH     C1  521   1.698   2.011   1.250  0.5750 -0.1901 -0.0316
   66ETH     C2  522   1.740   1.950   1.121  1.1375  0.2284  0.6503
   66ETH     H1  523   1.740   2.112   1.258  0.4125 -0.1015 -0.2751
   66ETH     H2  524   1.715   1.950   1.339  3.7536  2.7207  1.6107
   66ETH     H3  525   1.591   2.029   1.249  0.1238 -2.2354  2.0398
   66ETH     H4  526   1.709   2.012   1.037  0.4280  0.2986  0.9573
   66ETH     H5  527   1.671   1.869   1.096  1.1525  0.6091 -0.6826
   66ETH     H6  528   1.837   1.902   1.133 -0.0319 -2.5954 -0.2684
   67ETH     C1  529   1.840   1.590   4.586  0.6337 -0.0004  0.5553
   67ETH     C2  530   1.910   1.485   4.489 -0.4231 -0.4503 -0.8794
   67ETH     H1  531   1.752   1.631   4.537  0.6537 -1.4922 -0.8183
   67ETH     H2  532   1.908   1.666   4.625  0.3430 -0.2044  1.4800
   67ETH     H3  533   1.792   1.549   4.675 -1.0138  2.3303  0.8246
   67ETH     H4  534   1.935   1.554   4.409 -0.0841 -0.4520 -0.7747
   67ETH     H5  535   1.840   1.412   4.449  1.1969 -2.2336 -0.6025
   67ETH     H6  536   2.002   1.458   4.541 -1.1567 -0.0143  0.7294
   68ETH     C1  537   1.095   1.300   4.608  0.5872  0.2884  0.9312
   68ETH     C2  538   0.939   1.266   4.632  0.7216 -0.7964 -0.3897
   68ETH     H1  539   1.143   1.311   4.705  0.7610 -1.9579  1.1334
   68ETH     H2  540   1.115   1.388   4.545  0.8506 -0.5075 -0.1284
   68ETH     H3  541   1.145   1.220   4.554  2.2896  2.0826 -0.3243
   68ETH     H4  542   0.880   1.338   4.689  1.0806 -2.0747  1.7179
   68ETH     H5  543   0.927   1.179   4.697 -0.5553  1.1824  2.1763
   68ETH     H6  544   0.875   1.252   4.544  0.4899  2.2230 -0.7829
   69ETH     C1  545   2.586   0.801   3.557 -0.1901  0.1216 -0.3781
   69ETH     C2  546   2.660   0.901   3.461  0.5931  0.2793  0.2878
   69ETH     H1  547   2.625   0.701   3.542 -1.0680 -0.4025  0.6793
   69ETH     H2  548   2.478   0.795   3.561 -0.1249 -0.8644  0.0585
   69ETH     H3  549   2.604   0.817   3.664 -1.9193  0.0689 -0.0610
   69ETH     H4  550   2.617   1.001   3.462 -0.5976 -0.1845  2.7416
   69ETH     H5  551   2.643   0.864   3.360  2.9892  0.8451 -0.3831
   69ETH     H6  552   2.768   0.916   3.465  0.4614  1.0708  1.7582
   70ETH     C1  553   3.714   4.258   4.572  0.2237  0.2273 -0.0133
   70ETH     C2  554   3.572   4.242   4.608 -0.0285 -0.0148 -0.3587
   70ETH     H1  555   3.751   4.354   4.608 -0.7430  0.9079 -0.7712
   70ETH     H2  556   3.725   4.228   4.468 -1.2212 -1.3980  0.2611
   70ETH     H3  557   3.788   4.200   4.627  0.6962  0.3448 -0.5038
   70ETH     H4  558   3.543   4.140   4.634  1.1688  0.1529  1.9056
   70ETH     H5  559   3.508   4.257   4.521 -0.1474  1.4019 -0.0410
   70ETH     H6  560   3.545   4.309   4.689 -5.2337 -0.1752 -1.6393
   71ETH     C1  561   3.614   1.590   4.740  0.0970 -0.6987  0.9158
   71ETH     C2  562   3.642   1.722   4.823 -1.2770  0.5768  0.1378
   71ETH     H1  563   3.598   1.615   4.635  0.9087 -2.8463  0.2209
   71ETH     H2  564   3.515   1.560   4.775  0.0580 -0.2250  1.2139
   71ETH     H3  565   3.687   1.509   4.739  0.2206 -0.6001 -0.5877
   71ETH     H4  566   3.712   1.757   4.747 -2.4568 -0.9354 -1.7399
   71ETH     H5  567   3.686   1.720   4.923 -0.8739 -1.2334 -0.0326
   71ETH     H6  568   3.549   1.778   4.821 -3.6919 -2.9222  2.3540
   72ETH     C1  569   2.752   4.164   3.462 -0.5043 -0.0882  0.7132
   72ETH     C2  570   2.665   4.031   3.467 -0.1808 -0.1275 -0.4845
   72ETH     H1  571   2.697   4.256   3.444 -0.1479  0.1176  0.6466
   72ETH     H2  572   2.830   4.168   3.386 -1.7156 -1.9944 -0.6887
   72ETH     H3  573   2.802   4.193   3.555  0.2165 -0.6075  0.4968
   72ETH     H4  574   2.561   4.039   3.499 -0.0967  0.3023 -0.3074
   72ETH     H5  575   2.729   3.964   3.524 -0.1402  0.2778 -0.0488
   72ETH     H6  576   2.654   4.004   3.362 -2.5442  0.4910 -0.4625
   73ETH     C1  577   3.557   1.097   3.248  1.3527  0.2534  0.0897
   73ETH     C2  578   3.698   1.110   3.193 -0.6176 -0.0734  0.0837
   73ETH     H1  579   3.475   1.098   3.177 -1.7382 -0.9025  3.3401
   73ETH     H2  580   3.537   1.172   3.324 -1.2149 -2.2560  2.1305
   73ETH     H3  581   3.550   0.999   3.296 -0.4427  0.6085  0.6020
   73ETH     H4  582   3.711   1.038   3.112 -0.3738 -0.9556  0.8884
   73ETH     H5  583   3.774   1.095   3.269 -1.8502  2.4345  1.9635
   73ETH     H6  584   3.709   1.213   3.159  1.3558 -0.9513 -2.2695
   74ETH     C1  585   2.408   4.580   3.041 -0.7797  0.0050 -0.0952
   74ETH     C2  586   2.273   4.519   3.081  0.6473 -0.8988  0.0665
   74ETH     H1  587   2.440   4.644   3.124  1.2347 -0.1761 -0.6946
   74ETH     H2  588   2.432   4.629   2.946  1.6636 -1.8083 -0.5076
   74ETH     H3  589   2.492   4.511   3.043  0.7601  1.7497 -1.1195
   74ETH     H4  590   2.197   4.597   3.086  1.7243  0.2420 -0.6411
   74ETH     H5  591   2.283   4.476   3.180 -1.9170 -0.9346  0.3763
   74ETH     H6  592   2.235   4.453   3.003  2.5173  1.8379 -3.4673
   75ETH     C1  593   0.501   4.142   3.719  0.7710  0.4328 -0.6661
   75ETH     C2  594   0.631   4.222   3.697  0.0265 -0.1567  0.3217
   75ETH     H1  595   0.519   4.040   3.752  0.2906  1.3535  2.8717
   75ETH     H2  596   0.435   4.142   3.633  0.1195 -0.4768 -0.1751
   75ETH     H3  597   0.448   4.185   3.804  1.7193  0.7427 -0.2088
   75ETH     H4  598   0.725   4.175   3.670 -1.0149 -0.8748 -2.4543
   75ETH     H5  599   0.656   4.290   3.779 -1.3999  1.2503 -0.3603
   75ETH     H6  600   0.625   4.290   3.611 -3.3380 -3.6256 -2.5280
   76ETH     C1  601   3.324   1.187   0.190 -1.3709 -0.3301  0.0288
   76ETH     C2  602   3.187   1.235   0.225  0.8218 -0.1034  0.2067
   76ETH     H1  603   3.335   1.182   0.082  2.4536  0.3517  0.2153
   76ETH     H2  604   3.357   1.108   0.258 -0.8546  1.6304  2.1801
   76ETH     H3  605   3.396   1.267   0.209  0.1018 -1.5131 -0.3166
   76ETH     H4  606   3.107   1.162   0.217  0.1865  0.7949 -4.1146
   76ETH     H5  607   3.153   1.301   0.145  0.9603 -2.7537 -2.2010
   76ETH     H6  608   3.198   1.279   0.324  3.2957 -2.1274  0.9368
   77ETH     C1  609   1.806   1.835   0.216  0.1620  0.3253 -0.7415
   77ETH     C2  610   1.914   1.781   0.311  0.0129 -0.3259  0.7289
   77ETH     H1  611   1.806   1.939   0.184 -1.4507 -0.3099 -3.0312
   77ETH     H2  612   1.712   1.807   0.264 -0.2181  1.6030 -0.6981
   77ETH     H3  613   1.797   1.790   0.117  0.5057  0.4202 -0.8159
   77ETH     H4  614   1.904   1.811   0.415  1.3780 -1.4742  1.2196
   77ETH     H5  615   2.011   1.816   0.275 -1.1573  1.8916 -0.4791
   77ETH     H6  616   1.902   1.673   0.306  0.6870 -0.4023 -3.5732
   78ETH     C1  617   2.738   0.707   2.462  0.1483  0.5755  0.6928
   78ETH     C2  618   2.615   0.666   2.376  0.1055  0.5155  0.0090
   78ETH     H1  619   2.736   0.814   2.481 -1.2980  0.6177  0.4005
   78ETH     H2  620   2.825   0.693   2.398 -0.1529  0.4226  0.3116
   78ETH     H3  621   2.752   0.637   2.544  0.0415 -3.3170 -2.2587
   78ETH     H4  622   2.585   0.744   2.305  1.8020  1.2551  0.0488
   78ETH     H5  623   2.525   0.640   2.432 -0.5798 -3.3360 -2.4776
   78ETH     H6  624   2.642   0.583   2.311  2.1293  0.5310  0.7706
   79ETH     C1  625   2.500   1.477   1.933  0.2494 -0.7226  0.2885
   79ETH     C2  626   2.571   1.348   1.952  0.3047 -0.0774  0.1601
   79ETH     H1  627   2.487   1.526   2.030  0.8700  1.2431 -0.5858
   79ETH     H2  628   2.414   1.470   1.867  0.6301 -4.0202 -0.0412
   79ETH     H3  629   2.567   1.542   1.877 -1.0733 -0.0526 -0.5677
   79ETH     H4  630   2.654   1.352   2.024  2.0551 -2.7803 -1.5100
   79ETH     H5  631   2.617   1.314   1.860 -0.5986 -1.8974  0.3238
   79ETH     H6  632   2.513   1.264   1.990  1.3429 -1.0540 -0.3553
   80ETH     C1  633   0.428   0.768   2.284  0.6917  0.3387  0.8736
   80ETH     C2  634   0.361   0.678   2.185  0.6282  0.9417  0.4765
   80ETH     H1  635   0.424   0.724   2.384  1.5821  2.1527  1.7585
   80ETH     H2  636   0.385   0.867   2.269  1.2165  0.1691 -2.6216
   80ETH     H3  637   0.536   0.760   2.271  0.5360 -1.6519  0.4695
   80ETH     H4  638   0.256   0.686   2.212  1.0298  4.2311  1.5732
   80ETH     H5  639   0.393   0.579   2.219 -2.0695 -0.0164  0.4515
   80ETH     H6  640   0.379   0.688   2.078  1.7846 -0.4171  0.5185
   81ETH     C1  641   4.054   1.614   2.698 -0.7084  0.4284 -0.0828
   81ETH     C2  642   4.040   1.754   2.757  0.3942 -0.1442 -0.8289
   81ETH     H1  643   4.072   1.636   2.592 -1.8310  2.4400  0.0997
   81ETH     H2  644   3.966   1.551   2.700 -2.5857  2.7309 -2.6269
   81ETH     H3  645   4.130   1.565   2.760  1.5441  0.9355 -2.2582
   81ETH     H4  646   3.982   1.750   2.849  2.0483 -1.6339  0.2272
   81ETH     H5  647   3.984   1.821   2.692 -2.4662 -3.2753 -1.8773
   81ETH     H6  648   4.141   1.794   2.769  0.6173 -1.4580  3.4476
   82ETH     C1  649   2.508   0.138   2.187  0.4287 -0.0496  0.0580
   82ETH     C2  650   2.536   0.279   2.247 -0.2528 -0.6555  0.2663
   82ETH     H1  651   2.433   0.077   2.237 -3.8402  2.2779 -2.8249
   82ETH     H2  652   2.605   0.088   2.186  0.9534  0.8937 -1.6814
   82ETH     H3  653   2.477   0.138   2.082  3.6992 -6.8012 -1.4386
   82ETH     H4  654   2.470   0.360   2.216 -1.4542 -1.0474  1.6804
   82ETH     H5  655   2.635   0.310   2.212 -0.2284  1.9725  2.3578
   82ETH     H6  656   2.541   0.275   2.356  2.0589  2.7487  0.4442
   83ETH     C1  657   3.124   1.613   4.854 -0.5701  0.6077 -0.3137
   83ETH     C2  658   3.042   1.682   4.735  0.5398  0.0773 -0.5822
   83ETH     H1  659   3.140   1.662   4.949  5.6642 -2.3085  0.6353
   83ETH     H2  660   3.221   1.598   4.808 -1.4789 -2.7148 -1.4577
   83ETH     H3  661   3.095   1.510   4.874 -4.9318  1.7777  0.6094
   83ETH     H4  662   3.078   1.768   4.679 -1.2695  1.0318 -0.3526
   83ETH     H5  663   2.939   1.691   4.770  0.6235 -1.4432  0.1433
   83ETH     H6  664   3.024   1.606   4.659  4.1748 -0.5827 -0.9591
   84ETH     C1  665   2.878   2.155   2.865 -1.0119  0.0191 -1.1327
   84ETH     C2  666   2.824   2.147   2.726 -1.0730 -1.0164 -0.1047
   84ETH     H1  667   2.809   2.203   2.934 -1.8215 -1.8797 -0.5447
   84ETH     H2  668   2.978   2.198   2.864 -1.1052  0.6013  2.4411
   84ETH     H3  669   2.896   2.055   2.905 -0.2287  0.1826 -1.0623
   84ETH     H4  670   2.858   2.061   2.667 -0.4423  0.2895 -1.7196
   84ETH     H5  671   2.837   2.249   2.690 -3.2124 -0.9307 -0.7429
   84ETH     H6  672   2.719   2.128   2.746 -1.4109  0.7226 -0.1366
   85ETH     C1  673   0.204   3.926   3.277  0.5258 -0.0747  0.6612
   85ETH     C2  674   0.286   3.983   3.389  0.2752  0.1821 -0.6034
   85ETH     H1  675   0.128   3.999   3.250  1.9801  0.9810 -0.7427
   85ETH     H2  676   0.162   3.839   3.328  2.2192  0.7345  3.7200
   85ETH     H3  677   0.278   3.904   3.201  0.3175 -2.0738  0.9749
   85ETH     H4  678   0.355   4.057   3.350 -1.5268  1.4459 -1.5462
   85ETH     H5  679   0.347   3.915   3.448  0.8968  1.1878 -0.0664
   85ETH     H6  680   0.213   4.013   3.464  0.9148 -1.0226  0.5461
   86ETH     C1  681   3.432   1.325   0.570  0.5526 -0.3877 -0.3506
   86ETH     C2  682   3.546   1.359   0.471 -0.2247 -0.1335  0.1579
   86ETH     H1  683   3.462   1.327   0.675  2.0099 -2.2033 -0.6836
   86ETH     H2  684   3.387   1.228   0.550 -2.0961  0.0536  2.7210
   86ETH     H3  685   3.356   1.402   0.558  0.2131 -0.9995 -2.6307
   86ETH     H4  686   3.525   1.375   0.365  3.9606  0.3355 -0.7893
   86ETH     H5  687   3.628   1.290   0.490 -2.5534 -2.4643  2.5721
   86ETH     H6  688   3.606   1.447   0.497  2.6249 -0.9658 -2.8439
   87ETH     C1  689   4.604   2.935   0.814  0.1604 -0.0776  0.9362
   87ETH     C2  690   4.672   2.896   0.673 -0.9100  0.1349 -0.5410
   87ETH     H1  691   4.627   2.855   0.884  0.7923 -1.6174 -0.9330
   87ETH     H2  692   4.497   2.942   0.798  0.1026 -0.4750  1.1403
   87ETH     H3  693   4.639   3.027   0.861  1.5590  0.2337 -0.5990
   87ETH     H4  694   4.663   2.790   0.648  1.9928 -0.2766 -0.2640
   87ETH     H5  695   4.781   2.903   0.666 -0.7734  0.9004  1.5301
   87ETH     H6  696   4.614   2.938   0.592 -0.8501 -3.2136 -2.4818
   88ETH     C1  697   2.925   0.862   2.098 -0.3057 -0.4082 -1.0812
   88ETH     C2  698   2.985   0.931   2.213  0.2926 -0.6918 -0.9957
   88ETH     H1  699   2.860   0.937   2.053 -1.0954  0.5326  1.4550
   88ETH     H2  700   2.876   0.776   2.143  0.7949 -0.6304 -0.2555
   88ETH     H3  701   2.988   0.832   2.014  1.9304  0.9353  0.0288
   88ETH     H4  702   2.916   0.940   2.296  3.4029 -1.7791  1.9894
   88ETH     H5  703   3.034   1.027   2.198 -2.1146  1.1978  2.0599
   88ETH     H6  704   3.052   0.870   2.274  1.4170 -0.2117 -1.7152
   89ETH     C1  705   3.618   3.318   2.340 -0.3240 -0.0565  0.2883
   89ETH     C2  706   3.499   3.257   2.270  0.0154 -0.1339 -0.1500
   89ETH     H1  707   3.588   3.393   2.414 -0.0193  0.7248 -0.3703
   89ETH     H2  708   3.702   3.350   2.278  0.5865  0.5766  1.7912
   89ETH     H3  709   3.664   3.242   2.404 -1.8018 -0.8353  0.4593
   89ETH     H4  710   3.441   3.343   2.236 -0.7088 -0.1330  1.0248
   89ETH     H5  711   3.439   3.200   2.341 -1.0155  0.9714 -0.1099
   89ETH     H6  712   3.524   3.191   2.187  0.1666 -1.8883  1.2142
   90ETH     C1  713   3.665   2.423   1.801  1.1872  0.5177  0.4477
   90ETH     C2  714   3.619   2.287   1.730 -1.5520  0.3440 -0.4779
   90ETH     H1  715   3.583   2.491   1.824 -1.4738 -2.9635  2.2129
   90ETH     H2  716   3.749   2.466   1.746  0.2068  2.0709  0.0928
   90ETH     H3  717   3.709   2.400   1.898  1.7814 -0.1132  0.0407
   90ETH     H4  718   3.603   2.303   1.624  2.5650 -2.0416 -1.6859
   90ETH     H5  719   3.534   2.249   1.787 -0.6711  3.6574  3.5196
   90ETH     H6  720   3.691   2.207   1.750 -2.1304  0.6377  3.7552
   91ETH     C1  721   1.371   3.784   1.225 -0.0453 -0.0931  0.0133
   91ETH     C2  722   1.517   3.756   1.236  0.6041  0.4533  0.4362
   91ETH     H1  723   1.310   3.741   1.145 -0.2242  1.8372 -0.9488
   91ETH     H2  724   1.358   3.892   1.225 -1.9602 -0.2316  2.8525
   91ETH     H3  725   1.317   3.766   1.318 -1.3376 -0.7638 -0.8401
   91ETH     H4  726   1.565   3.800   1.324  3.0442 -1.4847  0.2102
   91ETH     H5  727   1.552   3.819   1.154  1.6675  0.8642  1.1745
   91ETH     H6  728   1.557   3.655   1.223  1.8788  1.1162 -1.2192
   92ETH     C1  729   2.340   4.004   2.693 -0.3311  0.2210  0.8573
   92ETH     C2  730   2.364   4.112   2.801  1.1227 -0.5118 -1.3919
   92ETH     H1  731   2.234   4.004   2.669  0.3461 -0.4019 -2.6690
   92ETH     H2  732   2.375   3.904   2.718  6.3048  0.6394 -4.0255
   92ETH     H3  733   2.385   4.034   2.598  2.5727 -4.0398  0.6425
   92ETH     H4  734   2.314   4.204   2.771  0.2055 -1.0542 -1.5564
   92ETH     H5  735   2.472   4.115   2.817  1.0188  0.8755 -0.8434
   92ETH     H6  736   2.307   4.073   2.885 -1.6126  1.6715 -2.0638
   93ETH     C1  737   2.688   2.702   3.587 -0.2725 -0.3883  1.3113
   93ETH     C2  738   2.594   2.572   3.602 -0.2544  0.5243 -0.2320
   93ETH     H1  739   2.789   2.662   3.570  2.0805  4.0914  3.0045
   93ETH     H2  740   2.685   2.756   3.681 -0.0392  0.3564  0.8952
   93ETH     H3  741   2.667   2.776   3.511  3.6310 -0.3205  0.0470
   93ETH     H4  742   2.636   2.512   3.683  0.1197  0.2631 -0.6136
   93ETH     H5  743   2.590   2.510   3.512  0.9549  1.5481 -1.0203
   93ETH     H6  744   2.499   2.616   3.631  0.6225  1.6487  1.0237
   94ETH     C1  745   4.653   3.525   0.622 -0.8393  0.1086 -1.7877
   94ETH     C2  746   4.575   3.452   0.731 -0.0168  1.0956  0.6433
   94ETH     H1  747   4.724   3.585   0.677 -0.9854 -0.8432 -0.5237
   94ETH     H2  748   4.595   3.582   0.550  0.5902  2.0021 -1.5122
   94ETH     H3  749   4.711   3.455   0.562  0.8772 -0.6530  0.6305
   94ETH     H4  750   4.559   3.346   0.710 -2.1087  1.6277 -0.8682
   94ETH     H5  751   4.473   3.476   0.763 -0.2759 -1.3554  1.9192
   94ETH     H6  752   4.635   3.461   0.822  1.4688 -3.6138  0.3983
   95ETH     C1  753   2.513   1.499   1.247  0.0049  0.3337  0.5321
   95ETH     C2  754   2.625   1.410   1.187 -0.0167 -0.3728 -0.8116
   95ETH     H1  755   2.431   1.521   1.179 -1.7534 -0.2441  2.3713
   95ETH     H2  756   2.534   1.593   1.298 -1.2639  0.4795  0.8049
   95ETH     H3  757   2.476   1.435   1.327 -0.7574  1.1626  0.8613
   95ETH     H4  758   2.689   1.375   1.268  1.3279 -0.5316 -1.9080
   95ETH     H5  759   2.699   1.461   1.125 -1.4122 -2.7420 -4.7799
   95ETH     H6  760   2.580   1.323   1.139 -1.6995 -0.9755  1.6195
   96ETH     C1  761   4.999   0.757   4.699 -0.0112 -0.6444  0.2485
   96ETH     C2  762   5.061   0.771   4.559 -0.7274  1.3438 -0.4492
   96ETH     H1  763   5.082   0.741   4.768  0.6836  0.6542 -0.2524
   96ETH     H2  764   4.928   0.676   4.710  0.7847 -1.3809  0.0779
   96ETH     H3  765   4.952   0.852   4.725  2.2994  0.3225  1.1998
   96ETH     H4  766   4.986   0.798   4.484 -1.8883 -0.1254  0.1331
   96ETH     H5  767   5.097   0.674   4.526  0.6259  0.5547  2.9071
   96ETH     H6  768   5.146   0.840   4.552 -0.6200  1.0941 -1.9998
   97ETH     C1  769   3.416   1.871   2.466 -0.6106 -0.1626 -0.0928
   97ETH     C2  770   3.347   1.832   2.340 -1.0127 -1.1868 -0.2403
   97ETH     H1  771   3.517   1.905   2.443 -1.8313  6.6413  2.4726
   97ETH     H2  772   3.412   1.776   2.519  2.7167 -0.8448 -0.8288
   97ETH     H3  773   3.375   1.958   2.516  3.8360  1.9090  0.4287
   97ETH     H4  774   3.422   1.805   2.266  1.3639  0.8132  1.2573
   97ETH     H5  775   3.290   1.914   2.299 -0.3470  0.9607  2.7881
   97ETH     H6  776   3.274   1.751   2.346 -2.3308 -0.1618 -1.8762
   98ETH     C1  777   1.013   2.203   1.235  0.5007 -0.1908 -0.8118
   98ETH     C2  778   1.159   2.193   1.214  0.3772 -0.0407  1.0463
   98ETH     H1  779   0.969   2.123   1.295  3.2381 -0.5906  0.8433
   98ETH     H2  780   0.966   2.186   1.138 -0.5996  3.7343 -1.0995
   98ETH     H3  781   0.978   2.304   1.252  3.8938  1.4316 -2.5618
   98ETH     H4  782   1.179   2.089   1.190  0.1134  0.4182 -1.4411
   98ETH     H5  783   1.215   2.218   1.304  2.3777 -0.6954  0.0528
   98ETH     H6  784   1.182   2.260   1.132  0.4060 -1.5039 -0.1824
   99ETH     C1  785   3.106   4.710   4.005 -0.9275  0.3576 -0.0235
   99ETH     C2  786   3.213   4.766   4.088 -0.1930  0.0930  0.5085
   99ETH     H1  787   3.019   4.769   4.032 -1.8514 -1.3857  0.9766
   99ETH     H2  788   3.090   4.605   4.028  4.1081 -1.1859 -2.1612
   99ETH     H3  789   3.129   4.725   3.899 -0.5651 -0.3934 -0.0559
   99ETH     H4  790   3.313   4.722   4.080 -0.0658  0.5758 -0.7307
   99ETH     H5  791   3.196   4.751   4.195 -0.8492 -0.7556  0.2972
   99ETH     H6  792   3.223   4.874   4.082 -1.5839  0.2388  0.4519
  100ETH     C1  793   3.986   3.775   0.828 -0.3588 -1.2547  0.1932
  100ETH     C2  794   3.930   3.907   0.892 -0.8165  0.7464 -0.2809
  100ETH     H1  795   3.925   3.686   0.841  0.8213 -2.2060 -0.6253
  100ETH     H2  796   4.085   3.742   0.858  0.4698  2.0421  1.6848
  100ETH     H3  797   4.006   3.787   0.722  2.0272  1.9657  0.8653
  100ETH     H4  798   3.853   3.939   0.821 -1.4483 -0.9421 -0.4175
  100ETH     H5  799   3.997   3.981   0.934  2.2007 -0.9688 -1.6932
  100ETH     H6  800   3.879   3.864   0.978  0.7226 -1.6559 -0.4622
  101ETH     C1  801   4.183   1.491   3.467 -1.1879 -0.1071  0.4696
  101ETH     C2  802   4.081   1.523   3.579  0.3824  0.6552 -1.0040
  101ETH     H1  803   4.119   1.462   3.385  0.7395 -1.4039 -0.6492
  101ETH     H2  804   4.256   1.415   3.496 -0.0588 -0.2611 -2.4973
  101ETH     H3  805   4.221   1.591   3.446  0.3395 -0.0527  3.0381
  101ETH     H4  806   4.116   1.607   3.638 -0.8371  0.1799  0.4594
  101ETH     H5  807   4.067   1.437   3.645  1.5325  2.0036  1.1065
  101ETH     H6  808   3.982   1.544   3.540 -0.5490 -0.2794  0.7172
  102ETH     C1  809   0.357   4.903   3.733  0.6255 -0.2081 -0.4142
  102ETH     C2  810   0.461   4.916   3.620  0.6629  0.2983 -0.3022
  102ETH     H1  811   0.274   4.835   3.714  1.2757 -1.4347  0.9444
  102ETH     H2  812   0.311   5.001   3.747 -1.0288 -0.8341 -1.2683
  102ETH     H3  813   0.416   4.890   3.823 -0.1818  2.8831  0.6969
  102ETH     H4  814   0.412   4.926   3.523 -0.4693 -1.6111  0.0196
  102ETH     H5  815   0.539   4.839   3.619  1.0986  0.6641  1.6848
  102ETH     H6  816   0.512   5.012   3.628 -3.5341  2.6711  1.0837
  103ETH     C1  817   4.154   3.381   4.866  0.6849 -0.5344  1.1217
  103ETH     C2  818   4.190   3.470   4.745  0.3416  1.4416  0.3371
  103ETH     H1  819   4.182   3.438   4.955 -0.0475 -0.4228  1.2917
  103ETH     H2  820   4.224   3.300   4.848 -0.2725 -1.1865  0.2358
  103ETH     H3  821   4.050   3.358   4.888  0.4191  0.6836  1.2234
  103ETH     H4  822   4.288   3.518   4.745  0.9866  0.3340 -2.2228
  103ETH     H5  823   4.125   3.558   4.747 -4.8045 -1.9497  0.8885
  103ETH     H6  824   4.155   3.410   4.660  2.5967 -0.2170  0.4907
  104ETH     C1  825   2.958   1.481   3.240  0.0244  0.2522  0.8451
  104ETH     C2  826   2.905   1.499   3.093  1.2808  0.3840  0.8983
  104ETH     H1  827   2.915   1.386   3.272  0.1774 -0.5401 -1.1545
  104ETH     H2  828   2.914   1.547   3.315  1.6095  0.4552  1.6570
  104ETH     H3  829   3.067   1.487   3.236  0.3433 -1.4951  3.8377
  104ETH     H4  830   2.903   1.604   3.066 -3.3021  1.0434  2.9321
  104ETH     H5  831   2.806   1.456   3.073  0.5313  1.7381  1.6133
  104ETH     H6  832   2.967   1.433   3.031  0.6913 -1.0831  1.8063
  105ETH     C1  833   4.503   0.803   4.402  0.7357 -0.7204 -0.1148
  105ETH     C2  834   4.621   0.721   4.357 -0.1279  0.1451 -0.2932
  105ETH     H1  835   4.457   0.854   4.318  1.2704  1.4023  0.8236
  105ETH     H2  836   4.529   0.879   4.475  0.3186 -2.2630  1.7511
  105ETH     H3  837   4.420   0.738   4.432  1.8633 -0.7445  3.3639
  105ETH     H4  838   4.660   0.672   4.446  0.6207  0.4154 -0.4677
  105ETH     H5  839   4.695   0.794   4.325 -0.0025 -1.3033 -3.7718
  105ETH     H6  840   4.604   0.657   4.270 -2.0031 -0.1086  0.2082
  106ETH     C1  841   4.567   3.110   3.047 -0.3822  0.6140  0.3551
  106ETH     C2  842   4.673   3.022   2.986  0.3851  0.2552  0.0331
  106ETH     H1  843   4.502   3.056   3.116 -2.4971 -1.1416 -2.7583
  106ETH     H2  844   4.516   3.159   2.964  1.2768  0.9288 -0.5244
  106ETH     H3  845   4.617   3.179   3.114  0.9536 -1.3108  1.4605
  106ETH     H4  846   4.747   3.073   2.925  1.4772 -0.4744  0.7159
  106ETH     H5  847   4.636   2.948   2.915 -1.9912  0.6005  0.7913
  106ETH     H6  848   4.716   2.961   3.065 -1.4030 -0.6257  0.3918
  107ETH     C1  849   3.877   2.157   4.329 -0.7442 -0.3434 -0.6364
  107ETH     C2  850   3.863   2.308   4.344 -0.2549 -0.9885 -0.2421
  107ETH     H1  851   3.964   2.129   4.271 -0.2276 -0.4951  0.1889
  107ETH     H2  852   3.800   2.112   4.266 -1.6610 -0.4625  0.5153
  107ETH     H3  853   3.857   2.099   4.420 -0.5819 -0.5625 -0.7395
  107ETH     H4  854   3.889   2.350   4.247 -0.5447  2.7152  1.1363
  107ETH     H5  855   3.934   2.347   4.417  0.1219 -0.9866 -0.6047
  107ETH     H6  856   3.761   2.332   4.375  0.0444  0.0736 -0.0590
  108ETH     C1  857   0.284   4.839   3.038  0.7941  0.4293 -0.2834
  108ETH     C2  858   0.380   4.955   3.018  0.0883 -1.1380  0.5490
  108ETH     H1  859   0.305   4.771   2.955 -0.5955 -0.2921 -0.0742
  108ETH     H2  860   0.181   4.876   3.035  0.2474 -0.3466  3.8476
  108ETH     H3  861   0.299   4.789   3.134  0.0569 -0.1173 -0.4401
  108ETH     H4  862   0.374   5.025   3.101 -1.2105  0.1349 -0.5595
  108ETH     H5  863   0.370   5.015   2.927  1.5386 -0.3401  0.8890
  108ETH     H6  864   0.482   4.918   3.011  2.1060  3.8397 -0.7103
  109ETH     C1  865   1.183   0.730   1.551  0.4570  1.4262  0.8423
  109ETH     C2  866   1.278   0.618   1.516  0.3081  0.6051 -0.2411
  109ETH     H1  867   1.180   0.815   1.483  1.0791  0.9173  0.1681
  109ETH     H2  868   1.189   0.757   1.657 -1.6392 -2.0966  2.0347
  109ETH     H3  869   1.083   0.688   1.545  1.5776 -1.1906 -2.2218
  109ETH     H4  870   1.295   0.556   1.604 -1.4687  3.0843  2.0439
  109ETH     H5  871   1.360   0.668   1.465  1.9006 -1.9493 -0.3548
  109ETH     H6  872   1.231   0.543   1.452 -1.7248  3.4115 -2.3013
  110ETH     C1  873   0.114   3.481   4.420  0.5784 -0.2961 -0.1996
  110ETH     C2  874   0.104   3.333   4.435  0.3340  0.5093 -0.0861
  110ETH     H1  875   0.129   3.492   4.313 -1.4969 -2.8879 -0.8755
  110ETH     H2  876   0.184   3.542   4.477 -1.4730  0.4804  1.6386
  110ETH     H3  877   0.015   3.522   4.441 -0.6120 -1.7293 -2.6430
  110ETH     H4  878   0.011   3.309   4.486  0.6907 -2.8687 -0.8203
  110ETH     H5  879   0.188   3.293   4.492 -1.9256 -1.5779  1.9877
  110ETH     H6  880   0.083   3.282   4.341 -2.3903  2.1080 -0.4473
  111ETH     C1  881   1.182   2.275   0.592 -0.7074  0.3083  0.0179
  111ETH     C2  882   1.298   2.225   0.513 -0.0139 -0.2923  0.2720
  111ETH     H1  883   1.111   2.318   0.521  1.3711  2.0150 -1.1623
  111ETH     H2  884   1.196   2.364   0.653 -2.9781  0.8081 -0.0968
  111ETH     H3  885   1.146   2.199   0.661  1.1520 -0.9085 -0.2985
  111ETH     H4  886   1.383   2.293   0.513 -0.0666 -0.1106 -2.5524
  111ETH     H5  887   1.265   2.200   0.412 -3.3561 -3.7383  1.9719
  111ETH     H6  888   1.310   2.134   0.572 -0.7307 -0.0970  0.7309
  112ETH     C1  889   0.421   2.045   2.408 -0.1239  1.0474  0.8523
  112ETH     C2  890   0.459   2.157   2.498  0.6984  0.0846 -0.1803
  112ETH     H1  891   0.334   2.005   2.461 -1.7642  0.8976 -1.7696
  112ETH     H2  892   0.490   1.964   2.384 -0.1455  1.2373  0.1128
  112ETH     H3  893   0.379   2.075   2.312  0.9241  0.7456  0.2828
  112ETH     H4  894   0.404   2.181   2.589  2.8790 -1.5909  1.7064
  112ETH     H5  895   0.424   2.241   2.438 -2.4641  0.4764  1.9277
  112ETH     H6  896   0.568   2.159   2.500  0.7608 -1.5742 -0.1337
  113ETH     C1  897   4.900   3.350   4.018  0.7024 -0.5534  1.1361
  113ETH     C2  898   4.873   3.496   4.043 -0.3318 -0.0628  0.5919
  113ETH     H1  899   4.961   3.297   4.091 -0.9712 -1.0421  2.2532
  113ETH     H2  900   4.932   3.336   3.915  1.9472 -4.4772  1.8944
  113ETH     H3  901   4.803   3.301   4.026  1.6009 -2.1827  2.5404
  113ETH     H4  902   4.812   3.515   4.132  2.7125  0.1659  2.7903
  113ETH     H5  903   4.828   3.550   3.960  1.0441  2.6651  1.4939
  113ETH     H6  904   4.966   3.548   4.067 -2.8545  4.0564  2.8005
  114ETH     C1  905   0.185   2.178   1.600 -0.4566  1.3895 -0.6670
  114ETH     C2  906   0.320   2.212   1.531 -0.0789 -0.2917  0.1866
  114ETH     H1  907   0.098   2.215   1.546 -0.4911  2.0014 -0.1941
  114ETH     H2  908   0.174   2.208   1.704  0.3510 -0.6601  0.0577
  114ETH     H3  909   0.179   2.069   1.599 -1.8281  1.4549 -0.8695
  114ETH     H4  910   0.396   2.188   1.605  1.7668  2.4899 -0.6571
  114ETH     H5  911   0.326   2.312   1.488 -2.7509  2.6802  5.6184
  114ETH     H6  912   0.343   2.151   1.444  0.1632  3.4927 -2.6711
  115ETH     C1  913   4.252   3.813   1.604  0.2149  0.0901 -0.5611
  115ETH     C2  914   4.175   3.786   1.471  0.1768  0.9246 -0.2115
  115ETH     H1  915   4.336   3.744   1.606 -0.6254 -1.1710 -3.3184
  115ETH     H2  916   4.202   3.800   1.700  3.0060 -2.0109  0.7310
  115ETH     H3  917   4.292   3.915   1.608 -1.7822  0.9151 -0.0155
  115ETH     H4  918   4.247   3.796   1.390 -2.8242  0.1665 -3.1797
  115ETH     H5  919   4.086   3.846   1.453 -2.1785 -0.2612  5.3883
  115ETH     H6  920   4.144   3.682   1.479  0.3125  1.0264  3.9579
  116ETH     C1  921   4.787   1.334   4.385 -0.9219 -0.0847 -0.4667
  116ETH     C2  922   4.909   1.239   4.348 -0.2878 -0.6448  0.5339
  116ETH     H1  923   4.781   1.388   4.480 -0.0253  2.6021 -1.8127
  116ETH     H2  924   4.696   1.274   4.390  0.8445 -2.8716  0.5880
  116ETH     H3  925   4.773   1.405   4.303  0.4650  1.1126  0.2844
  116ETH     H4  926   4.959   1.211   4.441  0.3614  3.0852  1.4625
  116ETH     H5  927   4.973   1.285   4.273 -2.4249 -0.0641 -1.0181
  116ETH     H6  928   4.870   1.142   4.317 -2.3184  0.3688 -0.2384
  117ETH     C1  929   0.775   3.734   3.084  0.1805  0.0852 -0.8003
  117ETH     C2  930   0.625   3.694   3.097 -0.8388 -1.0090 -0.2630
  117ETH     H1  931   0.820   3.699   2.991 -1.6270 -3.2319 -0.5911
  117ETH     H2  932   0.831   3.703   3.172 -0.9736 -0.8577 -0.3695
  117ETH     H3  933   0.775   3.843   3.083  0.1859  0.0852 -1.5299
  117ETH     H4  934   0.609   3.589   3.074 -2.7315 -0.0165 -4.1960
  117ETH     H5  935   0.579   3.750   3.016  0.5348  1.4616  0.5463
  117ETH     H6  936   0.567   3.710   3.188  0.3497  1.7980  0.1034
  118ETH     C1  937   0.203   3.086   3.460 -0.4348 -0.4908 -0.4351
  118ETH     C2  938   0.130   3.100   3.579  0.2211 -0.4661 -0.8506
  118ETH     H1  939   0.306   3.120   3.464 -0.5005 -0.0124 -2.0197
  118ETH     H2  940   0.143   3.127   3.378 -1.5817 -3.9009 -1.4940
  118ETH     H3  941   0.214   2.981   3.433  2.4139 -0.3033 -0.2066
  118ETH     H4  942   0.026   3.065   3.583  0.0234  0.2111  0.4690
  118ETH     H5  943   0.135   3.202   3.617  3.0527 -0.5516 -0.7668
  118ETH     H6  944   0.181   3.026   3.641 -0.8110 -1.0397 -0.6617
  119ETH     C1  945   0.375   3.508   3.375 -0.0607  0.3719 -0.2110
  119ETH     C2  946   0.260   3.568   3.449 -0.3613  0.4919  0.1266
  119ETH     H1  947   0.458   3.471   3.434  0.8353 -0.1746 -1.7716
  119ETH     H2  948   0.407   3.584   3.303  3.0707 -0.6008  0.0078
  119ETH     H3  949   0.332   3.423   3.323 -2.4509  0.6711  1.1177
  119ETH     H4  950   0.175   3.574   3.381  2.0245 -1.8374 -3.4356
  119ETH     H5  951   0.283   3.669   3.483  2.9726 -0.4751  1.1210
  119ETH     H6  952   0.229   3.510   3.535  1.6914 -2.9859 -1.2535
  120ETH     C1  953   1.374   2.087   0.895 -0.2239 -0.1703 -0.1642
  120ETH     C2  954   1.452   2.215   0.933 -0.0998  0.0365 -0.6853
  120ETH     H1  955   1.440   2.005   0.922  1.8512  0.6157 -2.4704
  120ETH     H2  956   1.341   2.090   0.791 -4.2040  3.0127  0.9383
  120ETH     H3  957   1.283   2.075   0.953 -0.2701 -1.5146 -0.4938
  120ETH     H4  958   1.388   2.290   0.978 -0.9293 -0.8029 -0.4384
  120ETH     H5  959   1.500   2.248   0.841  2.0756 -1.3558 -0.1381
  120ETH     H6  960   1.535   2.188   0.999 -0.1082 -3.6581 -1.9462
  121ETH     C1  961   3.629   2.160   2.082 -0.3168 -0.0172 -0.2402
  121ETH     C2  962   3.745   2.093   2.134  0.4439  1.1149  0.7058
  121ETH     H1  963   3.627   2.122   1.980 -1.4410 -1.8346  0.4104
  121ETH     H2  964   3.645   2.268   2.082 -2.8981  0.4471  0.0801
  121ETH     H3  965   3.532   2.143   2.128 -0.1763  1.1301  0.5133
  121ETH     H4  966   3.735   1.987   2.111  2.3316  1.2265 -0.9373
  121ETH     H5  967   3.752   2.079   2.242 -0.0902 -1.7786  0.4535
  121ETH     H6  968   3.836   2.136   2.091 -0.1079  0.6097 -1.0582
  122ETH     C1  969   3.969   2.314   3.037  1.2816  2.2374  0.4742
  122ETH     C2  970   3.967   2.412   3.151 -1.4025  0.2831  0.3299
  122ETH     H1  971   3.964   2.361   2.939  0.7806 -1.4245 -1.4361
  122ETH     H2  972   3.901   2.229   3.039  1.9120  1.5050 -2.9930
  122ETH     H3  973   4.066   2.264   3.035  0.0939 -0.2054 -0.1133
  122ETH     H4  974   3.877   2.472   3.162 -2.2491 -0.9456  0.2882
  122ETH     H5  975   4.039   2.491   3.131 -0.6154  0.0536  2.0825
  122ETH     H6  976   3.972   2.365   3.249  0.6914  0.9022  0.5611
  123ETH     C1  977   3.760   4.015   1.380 -0.3970 -0.2198  0.2076
  123ETH     C2  978   3.633   3.980   1.287 -0.8924 -0.2564  0.3198
  123ETH     H1  979   3.739   4.115   1.416 -0.9486 -0.6862  1.2096
  123ETH     H2  980   3.859   4.027   1.337 -0.4435  0.0105  0.1653
  123ETH     H3  981   3.760   3.944   1.463 -0.2274 -1.7234 -1.0154
  123ETH     H4  982   3.665   3.930   1.195 -1.0053  0.3432 -0.0448
  123ETH     H5  983   3.589   4.078   1.272  0.2990  0.4117  1.0313
  123ETH     H6  984   3.551   3.922   1.328 -0.2812 -1.5553 -0.2153
  124ETH     C1  985   3.392   4.431   4.271  0.4299  0.5664 -0.3612
  124ETH     C2  986   3.498   4.495   4.177  0.2806  0.9314 -0.4676
  124ETH     H1  987   3.413   4.443   4.378 -0.8782 -0.1450  0.0037
  124ETH     H2  988   3.378   4.326   4.245 -3.0990  0.8069  0.0526
  124ETH     H3  989   3.288   4.462   4.261  0.6326  0.7120 -2.3676
  124ETH     H4  990   3.566   4.571   4.218  2.7962 -1.2121 -0.3822
  124ETH     H5  991   3.449   4.523   4.084  1.4116 -1.9726 -2.0561
  124ETH     H6  992   3.549   4.403   4.149 -2.7776 -0.6418 -1.2404
  125ETH     C1  993   0.751   1.739   3.993  0.3142  0.8288  0.2021
  125ETH     C2  994   0.672   1.624   4.062  0.0494  0.5069 -0.1334
  125ETH     H1  995   0.848   1.763   4.036 -0.3192  1.0773  1.5661
  125ETH     H2  996   0.689   1.829   3.993 -1.4232 -0.2523  2.4417
  125ETH     H3  997   0.763   1.713   3.888  1.3377  2.2208 -0.0547
  125ETH     H4  998   0.596   1.656   4.132 -2.0953 -0.2121 -2.0097
  125ETH     H5  999   0.731   1.551   4.118 -0.5321  0.6757  0.7078
  125ETH     H6 1000   0.608   1.577   3.987 -0.6834  1.8490 -0.3712
  126SOL     OW 1001   1.314   0.054   4.018  0.6474  0.1586  0.5400
  126SOL    HW1 1002   1.330  -0.033   4.063  0.1016  0.6646  1.7463
  126SOL    HW2 1003   1.398   0.085   3.973  1.3858 -0.0702  1.7350
  127SOL     OW 1004   3.639   3.807   0.653  0.6571 -0.1869 -0.4670
  127SOL    HW1 1005   3.730   3.832   0.620  0.9275  2.0512  1.6591
  127SOL    HW2 1006   3.570   3.846   0.592  1.0866 -0.7810 -1.3605
  128SOL     OW 1007   4.880   0.648   2.629  0.3434 -0.2107  0.3278
  128SOL    HW1 1008   4.920   0.739   2.618 -1.2511  0.7451  1.8318
  128SOL    HW2 1009   4.844   0.639   2.722 -1.8721 -1.3929 -0.5614
  129SOL     OW 1010   0.974   2.828   2.649  0.5518  0.1086 -0.1264
  129SOL    HW1 1011   0.917   2.760   2.603  2.9691 -0.8815 -1.8618
  129SOL    HW2 1012   1.056   2.783   2.687 -0.1489  1.3026  3.1767
  130SOL     OW 1013   3.422   4.458   3.146 -1.1112  0.4424 -0.3015
  130SOL    HW1 1014   3.490   4.396   3.185 -1.8945 -0.8962 -0.9869
  130SOL    HW2 1015   3.351   4.476   3.214  0.7381  3.3073  1.0800
  131SOL     OW 1016   2.341   4.223   4.917  0.6504 -0.2629 -0.0751
  131SOL    HW1 1017   2.291   4.192   4.999  1.1086 -0.1808  0.2358
  131SOL    HW2 1018   2.355   4.322   4.922  0.2963 -0.1879 -0.4688
  132SOL     OW 1019   0.052   4.336   1.012  0.6898  0.4270  0.1073
  132SOL    HW1 1020   0.103   4.273   1.070  0.8672  1.4771  1.1367
  132SOL    HW2 1021   0.105   4.420   1.000  1.4647 -0.3651 -3.0599
  133SOL     OW 1022   3.568   3.104   1.685  0.0087 -0.5740  0.2281
  133SOL    HW1 1023   3.577   3.097   1.784  2.1049 -2.7974 -0.0290
  133SOL    HW2 1024   3.575   3.200   1.657  0.4895 -0.0158  2.1429
  134SOL     OW 1025   3.013   4.947   3.781 -0.5652 -0.9810 -0.0424
  134SOL    HW1 1026   2.993   4.860   3.736 -4.0455  0.2314 -1.2024
  134SOL    HW2 1027   3.112   4.962   3.783 -0.0129 -3.1115 -3.4916
  135SOL     OW 1028   0.205   0.702   2.549 -0.3312 -0.2415 -0.3124
  135SOL    HW1 1029   0.152   0.640   2.491  0.7201 -2.9103  1.3978
  135SOL    HW2 1030   0.288   0.656   2.581  1.6583  2.8261 -0.6179
  136SOL     OW 1031   0.955   1.133   2.449 -0.4571  0.8277 -0.6923
  136SOL    HW1 1032   0.942   1.223   2.491  0.8795  0.6919  0.0588
  136SOL    HW2 1033   0.899   1.066   2.495  0.6550  0.7664  0.6298
  137SOL     OW 1034   2.314   1.788   2.009 -0.6750 -1.0111 -0.2962
  137SOL    HW1 1035   2.335   1.731   1.930  2.1550  1.1700 -1.3032
  137SOL    HW2 1036   2.400   1.817   2.053 -2.0510  0.5240  1.5739
  138SOL     OW 1037   4.122   3.309   2.509  1.0220 -0.0123 -0.6999
  138SOL    HW1 1038   4.069   3.321   2.593  0.1114  0.1698 -1.2830
  138SOL    HW2 1039   4.111   3.391   2.451 -0.0623 -0.9538 -1.9041
  139SOL     OW 1040   0.293   4.860   1.519 -0.6269  0.4562  0.1775
  139SOL    HW1 1041   0.272   4.853   1.422 -0.5184  0.6336  0.1410
  139SOL    HW2 1042   0.217   4.824   1.572 -0.6413  0.2595  0.0245
  140SOL     OW 1043   4.992   4.563   4.725 -1.0541  0.3167 -0.3312
  140SOL    HW1 1044   5.055   4.492   4.692 -0.3396  0.4105  0.7836
  140SOL    HW2 1045   4.899   4.541   4.696 -0.5482  0.1026 -1.8956
  141SOL     OW 1046   1.409   4.147   1.347 -0.4992  0.5435 -0.8413
  141SOL    HW1 1047   1.345   4.141   1.270 -3.6549  1.5073  1.4650
  141SOL    HW2 1048   1.449   4.057   1.365  1.0272  0.4628 -4.0138
  142SOL     OW 1049   4.887   0.458   4.616 -0.0631  0.3328  0.0675
  142SOL    HW1 1050   4.843   0.478   4.529 -4.0678  1.2999  2.0770
  142SOL    HW2 1051   4.849   0.373   4.654 -0.0003  1.0144  1.7516
  143SOL     OW 1052   2.902   3.857   3.927  0.2543  0.6955  0.6761
  143SOL    HW1 1053   2.852   3.851   4.013  0.1790  0.7873  0.6392
  143SOL    HW2 1054   2.889   3.948   3.887  2.0879  1.4553  1.6800
  144SOL     OW 1055   0.547   4.140   2.181 -0.9757  0.0261  0.5759
  144SOL    HW1 1056   0.633   4.113   2.138 -1.4950  0.0724 -0.5128
  144SOL    HW2 1057   0.550   4.238   2.202 -0.9680  0.1386  0.0534
  145SOL     OW 1058   0.934   1.487   3.836  0.5515 -0.2852 -0.2184
  145SOL    HW1 1059   0.923   1.403   3.888 -2.6223  1.5309  2.4767
  145SOL    HW2 1060   0.905   1.472   3.741  0.3099 -2.2497  0.1239
  146SOL     OW 1061   3.908   0.742   2.215 -0.5042  0.7674 -0.5214
  146SOL    HW1 1062   3.834   0.682   2.183  0.3965  0.2752 -1.7826
  146SOL    HW2 1063   3.978   0.748   2.144 -0.1489  2.6213 -0.0565
  147SOL     OW 1064   1.773   0.807   0.123  0.2765 -0.3246 -0.4044
  147SOL    HW1 1065   1.767   0.894   0.075  0.9990  0.1491  0.3468
  147SOL    HW2 1066   1.691   0.753   0.104  0.3572  0.0111 -1.8363
  148SOL     OW 1067   4.418   2.876   2.439 -0.1759  0.4977  0.1105
  148SOL    HW1 1068   4.416   2.778   2.424 -2.1064  0.4945  0.0438
  148SOL    HW2 1069   4.389   2.896   2.533  0.5099  0.9895  0.2212
  149SOL     OW 1070   0.432   2.436   4.396  0.1684 -0.1072  0.2201
  149SOL    HW1 1071   0.351   2.377   4.390  0.3049 -0.3888  1.0161
  149SOL    HW2 1072   0.466   2.455   4.304 -1.8790  1.5128 -0.2958
  150SOL     OW 1073   2.233   1.436   4.435 -0.8055 -0.1009  0.5225
  150SOL    HW1 1074   2.232   1.442   4.535 -0.2988  0.1592  0.5157
  150SOL    HW2 1075   2.201   1.345   4.407  0.0719 -0.5609  0.9642
  151SOL     OW 1076   0.566   1.339   1.903  0.1137 -0.0009 -0.0149
  151SOL    HW1 1077   0.613   1.270   1.848  0.9346  1.0020 -0.5914
  151SOL    HW2 1078   0.560   1.307   1.998  1.7911 -0.2489  0.0388
  152SOL     OW 1079   1.039   1.563   2.529  0.9355 -0.0657  0.9268
  152SOL    HW1 1080   1.065   1.660   2.524 -0.8260  0.5228  1.9425
  152SOL    HW2 1081   1.011   1.541   2.623  0.3161 -1.2677  0.4852
  153SOL     OW 1082   1.591   3.826   0.290 -0.1733 -0.0097  0.2949
  153SOL    HW1 1083   1.499   3.795   0.265 -0.6806  2.5749 -1.3783
  153SOL    HW2 1084   1.659   3.767   0.247 -1.0829  0.3475 -1.7204
  154SOL     OW 1085   2.707   3.639   3.369  0.5402 -0.1748 -1.1970
  154SOL    HW1 1086   2.616   3.669   3.342  1.1023  1.1223 -1.6908
  154SOL    HW2 1087   2.740   3.695   3.445  1.4888  0.3202 -1.9530
  155SOL     OW 1088   1.917   2.730   2.965 -0.8141 -0.1577 -0.2412
  155SOL    HW1 1089   1.949   2.678   3.045  0.7494  2.4742  0.9760
  155SOL    HW2 1090   1.950   2.824   2.971 -1.5672  0.4345 -3.5062
  156SOL     OW 1091   2.376   2.808   2.963 -0.0027 -0.4491 -0.8286
  156SOL    HW1 1092   2.435   2.839   3.037  1.3583 -0.0039 -2.0591
  156SOL    HW2 1093   2.421   2.733   2.913  0.0241  0.5899 -2.4307
  157SOL     OW 1094   0.155   0.680   0.559 -0.2810  0.3025 -0.1011
  157SOL    HW1 1095   0.254   0.689   0.562 -0.3131  0.5666  2.5598
  157SOL    HW2 1096   0.116   0.708   0.646 -2.8724  1.8287 -1.6043
  158SOL     OW 1097   1.119   2.611   1.991 -0.5690  0.3475 -0.9594
  158SOL    HW1 1098   1.136   2.699   1.946 -0.8182  0.3647 -1.0239
  158SOL    HW2 1099   1.173   2.540   1.946  1.5783  0.8596  0.6511
  159SOL     OW 1100   0.036   2.945   0.004  0.3186 -0.0831  0.1575
  159SOL    HW1 1101  -0.025   2.923   0.080  0.3585  0.5442  0.3686
  159SOL    HW2 1102  -0.019   2.963  -0.078  0.3120 -1.9490 -0.2902
  160SOL     OW 1103   1.956   4.470   0.945 -0.3937 -0.2726 -0.4302
  160SOL    HW1 1104   1.923   4.414   1.021 -0.3595  2.6521  1.9216
  160SOL    HW2 1105   2.053   4.491   0.958 -1.0015  2.5159  0.3823
  161SOL     OW 1106   2.718   4.961   4.827  0.3669  0.2534 -0.0048
  161SOL    HW1 1107   2.632   4.925   4.864  0.6238  0.8792  1.2690
  161SOL    HW2 1108   2.780   4.886   4.807  0.5361 -0.1046  1.7002
  162SOL     OW 1109   2.711   1.938   3.454  0.2583 -0.1160  0.0914
  162SOL    HW1 1110   2.685   1.901   3.365  0.0070 -0.8846  0.4794
  162SOL    HW2 1111   2.769   2.019   3.440 -1.8256  1.3010 -0.7815
  163SOL     OW 1112   1.205   0.937   2.938  0.0723 -0.0630  0.0496
  163SOL    HW1 1113   1.207   1.024   2.889 -1.3717  1.0239  1.7818
  163SOL    HW2 1114   1.188   0.863   2.873  4.0490  0.4686 -1.9176
  164SOL     OW 1115   0.600   3.492   0.769  0.6637 -0.3367 -0.7880
  164SOL    HW1 1116   0.551   3.407   0.790  0.3670  0.2409  0.9906
  164SOL    HW2 1117   0.699   3.474   0.772  0.6017 -0.8465 -1.5010
  165SOL     OW 1118   3.502   3.902   0.418 -0.6481 -0.1606  0.4043
  165SOL    HW1 1119   3.415   3.886   0.372 -0.4668  2.0896 -0.8556
  165SOL    HW2 1120   3.573   3.848   0.373 -0.7495  0.8597 -1.0673
  166SOL     OW 1121   4.522   3.009   4.651  0.2141 -0.0833  0.0086
  166SOL    HW1 1122   4.537   2.910   4.658  0.2731 -0.0287  0.8187
  166SOL    HW2 1123   4.469   3.039   4.730 -0.1134  0.4797 -0.4222
  167SOL     OW 1124   0.852   0.948   2.643 -0.6445 -0.4331  0.2474
  167SOL    HW1 1125   0.763   0.994   2.652 -0.7569 -0.5661 -0.1816
  167SOL    HW2 1126   0.856   0.871   2.707 -1.0714 -0.7903 -0.1490
  168SOL     OW 1127   3.460   1.420   4.523  0.5044  0.2261 -0.5412
  168SOL    HW1 1128   3.405   1.378   4.595  1.1417  0.2304 -0.0396
  168SOL    HW2 1129   3.446   1.519   4.523 -0.1302  0.1428 -0.9772
  169SOL     OW 1130   2.535   1.454   4.735 -0.5337  0.7952  0.5467
  169SOL    HW1 1131   2.508   1.483   4.643 -0.9540  1.3925  0.8457
  169SOL    HW2 1132   2.535   1.354   4.740  1.7127  0.6756 -0.7351
  170SOL     OW 1133   0.456   0.715   0.288  1.8174  0.8866 -0.1952
  170SOL    HW1 1134   0.408   0.801   0.307 -2.9168 -2.1744  5.0702
  170SOL    HW2 1135   0.415   0.671   0.208 -2.3159  0.0466  2.0566
  171SOL     OW 1136   1.606   0.084   3.979 -1.1429 -0.3682  0.5772
  171SOL    HW1 1137   1.666   0.126   3.912  0.1119 -1.0917  1.2067
  171SOL    HW2 1138   1.612  -0.016   3.971 -2.0781 -0.4560  0.8219
  172SOL     OW 1139   1.844   0.784   4.787 -0.0163 -0.0439  0.7321
  172SOL    HW1 1140   1.871   0.817   4.878  0.7207  5.7392 -1.1300
  172SOL    HW2 1141   1.748   0.807   4.771  0.0439 -0.3854 -0.1692
  173SOL     OW 1142   1.093   0.359   1.259 -1.4541 -0.3122 -0.6899
  173SOL    HW1 1143   1.155   0.432   1.230 -0.1486 -1.4125 -0.7773
  173SOL    HW2 1144   1.066   0.306   1.179  0.8311 -2.3396 -0.2448
  174SOL     OW 1145   4.008   0.673   0.040  0.2692 -0.2556 -0.4337
  174SOL    HW1 1146   4.092   0.637   0.081 -0.1744 -0.2165  0.5421
  174SOL    HW2 1147   3.985   0.760   0.082 -0.1399 -0.1589 -0.8528
  175SOL     OW 1148   2.357   3.212   2.948 -0.7744  0.1262  0.3641
  175SOL    HW1 1149   2.314   3.233   2.860 -0.5767  0.7000  0.3958
  175SOL    HW2 1150   2.317   3.129   2.986 -2.1206  0.8336  0.5676
  176SOL     OW 1151   2.422   4.256   1.997 -0.4380 -0.0763 -0.1140
  176SOL    HW1 1152   2.439   4.342   2.045 -1.7388  0.1075  0.0485
  176SOL    HW2 1153   2.428   4.180   2.062  0.0634 -0.0536 -0.1286
  177SOL     OW 1154   2.435   2.820   2.429  0.3813  0.9904  0.5462
  177SOL    HW1 1155   2.369   2.879   2.476  0.6561  0.7572  1.2274
  177SOL    HW2 1156   2.494   2.877   2.371  0.8463  1.4237  1.4357
  178SOL     OW 1157   4.840   0.149   2.441 -0.1252  0.2800  1.2849
  178SOL    HW1 1158   4.883   0.065   2.408  0.5981  0.3575  2.0022
  178SOL    HW2 1159   4.864   0.163   2.537 -2.1071  0.0904  1.8679
  179SOL     OW 1160   1.991   1.421   0.655 -1.2460  0.7108 -0.4126
  179SOL    HW1 1161   1.927   1.345   0.659  1.3076 -1.5676  3.3478
  179SOL    HW2 1162   2.066   1.399   0.592 -0.2559 -0.2098  1.0413
  180SOL     OW 1163   4.929   3.964   2.366 -0.4365  1.0108 -0.2018
  180SOL    HW1 1164   4.832   3.953   2.349 -0.3087  0.7265 -0.7563
  180SOL    HW2 1165   4.967   4.030   2.300  0.4640 -1.5883 -2.4711
  181SOL     OW 1166   1.437   0.936   1.353 -0.0992  0.3108 -0.2249
  181SOL    HW1 1167   1.504   1.002   1.319 -0.3592 -0.2269 -1.8595
  181SOL    HW2 1168   1.440   0.853   1.298 -0.3366 -0.7601  1.2962
  182SOL     OW 1169   0.397   4.683   2.615  0.2318 -0.8253 -1.0892
  182SOL    HW1 1170   0.308   4.712   2.579  0.7300 -0.2303 -1.9129
  182SOL    HW2 1171   0.467   4.698   2.544  1.9040  3.7070  1.1199
  183SOL     OW 1172   2.308   2.652   0.447  0.6935 -0.1209 -0.2088
  183SOL    HW1 1173   2.271   2.560   0.436  1.6530 -0.3913 -1.3716
  183SOL    HW2 1174   2.390   2.662   0.391  1.2108  1.1137  0.7205
  184SOL     OW 1175   1.013   3.653   3.965 -0.4722  0.3803  0.7873
  184SOL    HW1 1176   0.945   3.586   3.934 -1.0205  1.8326 -1.4157
  184SOL    HW2 1177   1.062   3.689   3.886  1.9485  0.3992  2.2032
  185SOL     OW 1178   2.784   3.648   0.261  0.1710  0.0773 -0.3426
  185SOL    HW1 1179   2.794   3.558   0.303 -1.9292 -0.8030 -1.5882
  185SOL    HW2 1180   2.687   3.665   0.241  0.8327  1.2895 -2.9427
  186SOL     OW 1181   3.648   2.727   2.625 -0.9055 -0.2419 -0.1221
  186SOL    HW1 1182   3.656   2.771   2.535  0.7717  0.4537  0.3303
  186SOL    HW2 1183   3.559   2.681   2.632 -0.8890 -0.7348 -2.3224
  187SOL     OW 1184   3.227   4.841   3.193 -0.3650 -0.7263  0.4841
  187SOL    HW1 1185   3.181   4.929   3.204  0.2702 -0.4136  0.7232
  187SOL    HW2 1186   3.244   4.824   3.096 -0.4342 -0.5521  0.4411
  188SOL     OW 1187   1.698   1.678   1.385 -0.5118 -0.4889  0.5388
  188SOL    HW1 1188   1.737   1.750   1.328  1.4680  0.4506  2.8789
  188SOL    HW2 1189   1.646   1.720   1.460  0.6305 -1.4218  1.9207
  189SOL     OW 1190   4.367   4.355   0.244 -0.5437  0.2469 -0.1530
  189SOL    HW1 1191   4.273   4.322   0.235  0.1655 -1.9356 -0.0675
  189SOL    HW2 1192   4.382   4.388   0.337 -1.2489  0.7791 -0.2140
  190SOL     OW 1193   4.386   0.469   1.816  0.1841 -0.2041  0.6443
  190SOL    HW1 1194   4.429   0.380   1.799  1.4034 -0.0074  2.3956
  190SOL    HW2 1195   4.419   0.506   1.903 -1.5280  1.2455  0.7410
  191SOL     OW 1196   2.495   4.504   0.174  0.1635 -0.1496  0.1949
  191SOL    HW1 1197   2.595   4.498   0.174  0.1236 -2.2234  2.2255
  191SOL    HW2 1198   2.465   4.558   0.096  2.9224  2.3379  0.6894
  192SOL     OW 1199   2.548   2.657   2.856 -0.2106  0.2821  0.0490
  192SOL    HW1 1200   2.565   2.671   2.759 -3.3670  2.2307 -0.3661
  192SOL    HW2 1201   2.506   2.567   2.870  2.0396 -0.8540 -0.0215
  193SOL     OW 1202   2.224   2.997   4.482  0.0908  0.0231 -0.1867
  193SOL    HW1 1203   2.259   3.087   4.454  2.3218  0.2378  2.7288
  193SOL    HW2 1204   2.293   2.951   4.539 -2.2049 -2.2159  0.9884
  194SOL     OW 1205   4.820   4.705   2.516  0.2429  0.5537  0.3863
  194SOL    HW1 1206   4.871   4.709   2.430 -0.0213  1.8722  0.2646
  194SOL    HW2 1207   4.727   4.673   2.497  0.7976 -1.2628  0.5226
  195SOL     OW 1208   1.530   4.008   4.447  0.5276 -0.2671  0.3671
  195SOL    HW1 1209   1.437   4.045   4.450  1.0911  1.1715  1.1497
  195SOL    HW2 1210   1.538   3.934   4.514 -0.1621 -0.7135 -0.0235
  196SOL     OW 1211   1.354   1.244   1.174  0.4066  0.3403  0.9123
  196SOL    HW1 1212   1.443   1.215   1.209  0.7264  2.0345  1.6098
  196SOL    HW2 1213   1.285   1.234   1.246 -0.2001 -1.7288  0.1374
  197SOL     OW 1214   2.465   4.359   2.618 -0.6161  1.3232 -0.3579
  197SOL    HW1 1215   2.552   4.341   2.572 -0.0485  0.5712  0.9616
  197SOL    HW2 1216   2.428   4.446   2.586  1.5590  2.6180  0.4168
  198SOL     OW 1217   0.546   2.731   4.822  0.3847 -1.3052  0.1500
  198SOL    HW1 1218   0.466   2.764   4.872  2.2454 -3.5222  5.3103
  198SOL    HW2 1219   0.518   2.664   4.754 -2.2416 -1.1867  1.0185
  199SOL     OW 1220   1.604   1.581   4.329 -0.2330  0.0388 -1.3564
  199SOL    HW1 1221   1.667   1.653   4.358  0.1504  0.2184 -2.5377
  199SOL    HW2 1222   1.516   1.592   4.374  1.5235 -2.3115  3.2231
  200SOL     OW 1223   2.589   0.735   0.951  0.3756  0.9039  0.0252
  200SOL    HW1 1224   2.606   0.693   1.041  1.0297 -0.0645 -0.5299
  200SOL    HW2 1225   2.622   0.830   0.952  1.4953  0.5325  0.4483
  201SOL     OW 1226   3.336   0.487   0.068 -0.4536 -0.8659 -0.0992
  201SOL    HW1 1227   3.365   0.401   0.026 -2.9580 -2.1903  0.7011
  201SOL    HW2 1228   3.255   0.522   0.022 -0.7072 -0.0537  0.9190
  202SOL     OW 1229   0.313   3.387   0.731 -0.5276  0.0291 -0.0386
  202SOL    HW1 1230   0.351   3.384   0.824  0.2905 -0.8091 -0.3788
  202SOL    HW2 1231   0.213   3.389   0.736 -0.5049 -0.5436  0.8631
  203SOL     OW 1232   4.172   0.979   1.553 -0.0991  0.1328 -0.6142
  203SOL    HW1 1233   4.091   0.984   1.495 -1.2778 -0.4739  0.8926
  203SOL    HW2 1234   4.254   0.992   1.498 -1.1547 -0.4502 -2.4005
  204SOL     OW 1235   1.419   0.330   3.373  0.2880 -0.1750  0.4243
  204SOL    HW1 1236   1.473   0.246   3.384 -1.4391 -1.3110  0.5010
  204SOL    HW2 1237   1.475   0.399   3.328  1.9221 -1.1883  0.8133
  205SOL     OW 1238   2.360   1.286   0.269  0.0413  0.9561  0.4580
  205SOL    HW1 1239   2.397   1.194   0.272  1.0195  1.1572 -2.5865
  205SOL    HW2 1240   2.260   1.282   0.280  0.0931 -0.4367  0.5818
  206SOL     OW 1241   3.209   0.886   4.471 -0.2575  0.0369  0.4060
  206SOL    HW1 1242   3.157   0.862   4.553 -1.3044 -1.4700 -0.6419
  206SOL    HW2 1243   3.286   0.944   4.496 -0.7573 -0.0898  2.3952
  207SOL     OW 1244   1.012   1.267   3.591  0.6553 -0.3476  0.4964
  207SOL    HW1 1245   0.942   1.232   3.653  1.2840  1.5231  2.4184
  207SOL    HW2 1246   1.091   1.205   3.590 -1.0892 -2.7078 -2.0437
  208SOL     OW 1247   4.010   0.870   3.992 -0.3402  0.0526 -0.0111
  208SOL    HW1 1248   3.944   0.896   3.921 -1.5819 -2.3553  0.1230
  208SOL    HW2 1249   3.963   0.864   4.080 -0.7585 -4.0219 -0.2872
  209SOL     OW 1250   3.829   0.826   4.215  0.3194  0.2956  0.9967
  209SOL    HW1 1251   3.763   0.865   4.280 -1.4099  1.3895 -1.2665
  209SOL    HW2 1252   3.793   0.739   4.180  0.3616  0.5838  0.2202
  210SOL     OW 1253   2.928   0.288   2.148  0.2705 -0.6895 -0.4828
  210SOL    HW1 1254   2.882   0.224   2.086  2.0485 -1.2678 -1.2998
  210SOL    HW2 1255   3.027   0.272   2.144  0.6546  1.1823  0.3756
  211SOL     OW 1256   3.472   1.888   3.325 -0.3852 -0.4547  0.0237
  211SOL    HW1 1257   3.528   1.949   3.381  1.9098 -1.0695 -1.4825
  211SOL    HW2 1258   3.405   1.842   3.383  0.7836  0.1566  1.9588
  212SOL     OW 1259   3.380   0.193   3.594 -0.3373 -0.4205  0.4044
  212SOL    HW1 1260   3.355   0.117   3.534 -1.9448  0.2462  0.1749
  212SOL    HW2 1261   3.352   0.279   3.552 -1.8615  0.0494  2.2382
  213SOL     OW 1262   0.827   0.051   4.460  0.3282  0.3906  0.5231
  213SOL    HW1 1263   0.829  -0.045   4.487  4.6755  0.5152  1.3355
  213SOL    HW2 1264   0.736   0.074   4.423 -0.7564 -4.0439 -0.0706
  214SOL     OW 1265   3.455   1.854   2.976 -0.3027 -0.1013  0.5115
  214SOL    HW1 1266   3.467   1.758   2.950  3.7309  0.7739 -1.7647
  214SOL    HW2 1267   3.358   1.878   2.970 -1.9043 -4.4603  3.5176
  215SOL     OW 1268   4.216   0.959   0.710  0.1277 -0.3455 -0.1185
  215SOL    HW1 1269   4.184   1.046   0.674 -1.5547 -0.4586  1.0139
  215SOL    HW2 1270   4.138   0.900   0.731  1.2282 -2.4421 -1.5034
  216SOL     OW 1271   4.386   4.414   4.104  0.5983 -0.2735 -0.4347
  216SOL    HW1 1272   4.470   4.457   4.073  1.6716 -1.9614 -0.0235
  216SOL    HW2 1273   4.332   4.383   4.025 -0.2732  1.8589 -0.7388
  217SOL     OW 1274   3.996   3.228   2.214  0.0304  0.8256  0.2429
  217SOL    HW1 1275   3.971   3.317   2.253 -0.4029  1.0133 -0.4547
  217SOL    HW2 1276   4.096   3.222   2.205  0.0077  1.7167 -0.8011
  218SOL     OW 1277   0.328   0.988   2.598  0.0795  0.0253 -0.3085
  218SOL    HW1 1278   0.272   0.907   2.616 -0.9584  0.9802  0.9246
  218SOL    HW2 1279   0.413   0.983   2.650 -0.0677 -0.1835 -0.0904
  219SOL     OW 1280   1.126   4.493   0.118  0.5706 -0.2463  0.7100
  219SOL    HW1 1281   1.210   4.548   0.116 -0.9527  2.2394 -1.6654
  219SOL    HW2 1282   1.147   4.399   0.090  2.4057  0.5920 -0.9600
  220SOL     OW 1283   1.892   3.506   1.152  0.0598 -0.2468  0.2421
  220SOL    HW1 1284   1.930   3.512   1.060 -1.4034  2.1497 -0.2952
  220SOL    HW2 1285   1.952   3.553   1.217  0.6177 -1.1199  0.3781
  221SOL     OW 1286   0.367   2.565   0.832 -0.5647 -0.0224  0.3492
  221SOL    HW1 1287   0.425   2.537   0.908  2.9867  0.8393 -1.8311
  221SOL    HW2 1288   0.391   2.658   0.804 -3.1468  0.4331 -0.6564
  222SOL     OW 1289   0.019   3.549   0.504  0.4759  0.0018 -0.1584
  222SOL    HW1 1290  -0.051   3.508   0.446  0.8226 -1.4367  0.4178
  222SOL    HW2 1291   0.109   3.532   0.466  0.6804 -0.5869  0.5764
  223SOL     OW 1292   2.278   0.238   3.551 -0.6202  0.3868 -0.4194
  223SOL    HW1 1293   2.310   0.333   3.554  2.5042 -0.5644  0.6830
  223SOL    HW2 1294   2.247   0.217   3.458  3.1665  1.2854 -2.1294
  224SOL     OW 1295   1.422   3.191   2.484 -0.0715 -0.4057  0.9286
  224SOL    HW1 1296   1.404   3.154   2.575  0.1998 -0.3887  0.9903
  224SOL    HW2 1297   1.438   3.290   2.491 -3.1422  0.2020  0.4816
  225SOL     OW 1298   3.182   3.087   0.722  0.6499 -0.0105 -0.2136
  225SOL    HW1 1299   3.238   3.007   0.703 -1.7944 -1.4987 -1.6730
  225SOL    HW2 1300   3.153   3.128   0.636 -3.2433 -1.4078  0.2366
  226SOL     OW 1301   1.254   0.930   0.930  0.0534 -0.4990 -0.0823
  226SOL    HW1 1302   1.183   0.993   0.960  1.0226  1.1784 -1.1618
  226SOL    HW2 1303   1.341   0.956   0.973  0.3578 -1.5204 -0.0473
  227SOL     OW 1304   4.179   1.442   4.149  0.0436  0.2676 -0.0563
  227SOL    HW1 1305   4.234   1.371   4.106 -0.5978 -1.0123  1.1163
  227SOL    HW2 1306   4.235   1.494   4.213  0.4421  0.5892 -0.6664
  228SOL     OW 1307   4.544   4.159   4.095 -0.1468  0.4137 -0.5287
  228SOL    HW1 1308   4.519   4.064   4.076 -1.7865  0.9611 -1.3452
  228SOL    HW2 1309   4.468   4.205   4.141  0.7940  1.2313  0.2486
  229SOL     OW 1310   2.280   2.285   1.649 -0.4366  0.2296  0.0535
  229SOL    HW1 1311   2.292   2.236   1.735 -1.0444  0.0398  0.0380
  229SOL    HW2 1312   2.182   2.296   1.630 -0.3290 -0.4568 -1.0110
  230SOL     OW 1313   3.336   3.829   3.170  0.0989 -0.0372  0.4448
  230SOL    HW1 1314   3.334   3.737   3.210  0.0843 -0.0893  0.3247
  230SOL    HW2 1315   3.254   3.880   3.199 -1.0650 -0.8222 -1.2803
  231SOL     OW 1316   1.866   0.908   1.285  0.2313  0.2133 -0.0753
  231SOL    HW1 1317   1.795   0.864   1.230 -0.0367 -2.5274  2.2568
  231SOL    HW2 1318   1.845   0.897   1.382  2.8476  1.1092  0.6718
  232SOL     OW 1319   0.943   1.775   4.695  0.0742 -0.2422  0.3948
  232SOL    HW1 1320   0.878   1.848   4.678  3.2771  2.6180 -0.8161
  232SOL    HW2 1321   0.969   1.732   4.608  0.0195 -1.1711  0.8217
  233SOL     OW 1322   1.775   0.029   1.902  0.5371 -0.3809  0.5279
  233SOL    HW1 1323   1.710   0.095   1.862  2.0748  0.9932  0.1874
  233SOL    HW2 1324   1.727  -0.056   1.922 -1.3252  0.5066  0.1080
  234SOL     OW 1325   4.618   3.343   1.723 -0.1215  0.3084 -0.2193
  234SOL    HW1 1326   4.522   3.329   1.747 -0.3858 -0.7603 -1.7768
  234SOL    HW2 1327   4.676   3.294   1.788 -0.3906  3.3294  2.5631
  235SOL     OW 1328   2.761   1.216   4.839  0.2981 -0.3578 -0.8452
  235SOL    HW1 1329   2.754   1.257   4.930 -1.9031 -0.8988 -0.7177
  235SOL    HW2 1330   2.835   1.260   4.788 -0.3072  1.9799  0.1611
  236SOL     OW 1331   0.387   0.186   3.419  0.0904 -0.6304 -0.1085
  236SOL    HW1 1332   0.471   0.134   3.432  0.4881  0.0545  0.1087
  236SOL    HW2 1333   0.409   0.283   3.404 -0.5214 -0.7943 -2.4619
  237SOL     OW 1334   4.823   2.548   2.785 -0.4862  0.1747 -0.1116
  237SOL    HW1 1335   4.781   2.625   2.737 -1.2579 -0.1225  0.0711
  237SOL    HW2 1336   4.796   2.462   2.741 -0.7276 -0.0646  0.4931
  238SOL     OW 1337   0.779   3.298   3.100  0.2205 -0.0530  0.5492
  238SOL    HW1 1338   0.841   3.295   3.021  0.4557 -1.4064  0.7629
  238SOL    HW2 1339   0.819   3.356   3.171  1.5529 -1.3568  0.9107
  239SOL     OW 1340   0.777   0.643   1.717 -0.4033 -0.4058  0.1292
  239SOL    HW1 1341   0.755   0.740   1.716  1.6254  0.1066 -0.2561
  239SOL    HW2 1342   0.872   0.631   1.747 -0.4045 -2.2064 -0.4588
  240SOL     OW 1343   1.837   4.182   4.779  0.4483  0.2769 -0.0753
  240SOL    HW1 1344   1.926   4.188   4.825 -0.1134  1.4592  0.8999
  240SOL    HW2 1345   1.823   4.262   4.722  0.6188 -0.6183 -1.4262
  241SOL     OW 1346   3.800   3.959   4.642 -0.6722 -0.1812  0.6818
  241SOL    HW1 1347   3.864   3.883   4.651 -2.4584 -1.7338  0.9411
  241SOL    HW2 1348   3.741   3.963   4.722  0.6073  2.7807  1.6110
  242SOL     OW 1349   3.717   0.387   1.567 -0.4538 -0.4247  0.1619
  242SOL    HW1 1350   3.762   0.415   1.482  0.2233  0.5344  0.8171
  242SOL    HW2 1351   3.737   0.453   1.638 -1.9267 -0.6378  0.7982
  243SOL     OW 1352   0.887   0.232   4.642  0.1410  0.8089  0.4439
  243SOL    HW1 1353   0.864   0.155   4.582 -2.4277 -0.1559  2.4641
  243SOL    HW2 1354   0.955   0.202   4.710 -0.7247  0.3270  1.1175
  244SOL     OW 1355   2.750   3.684   3.114 -0.0375  0.2574 -0.3692
  244SOL    HW1 1356   2.724   3.638   3.198  3.2021 -5.7422 -2.0318
  244SOL    HW2 1357   2.821   3.752   3.133  0.6117 -0.9439  1.7779
  245SOL     OW 1358   2.716   0.661   1.571 -0.4351 -0.8168 -0.7216
  245SOL    HW1 1359   2.717   0.562   1.559  3.4010 -0.8510 -1.3529
  245SOL    HW2 1360   2.795   0.689   1.626 -2.3335  1.8130  0.8706
  246SOL     OW 1361   2.828   2.796   1.778 -0.2874 -0.5404  0.3524
  246SOL    HW1 1362   2.736   2.795   1.737 -0.4736  2.3102  0.5089
  246SOL    HW2 1363   2.836   2.874   1.839  1.3963 -2.3052  2.5615
  247SOL     OW 1364   2.119   1.166   3.119 -0.1751  0.0376  0.2979
  247SOL    HW1 1365   2.045   1.194   3.057  1.2965  1.9517 -0.6873
  247SOL    HW2 1366   2.085   1.165   3.213 -1.2614  1.6962 -0.0400
  248SOL     OW 1367   1.963   4.869   0.020 -0.4297 -0.2117  0.2233
  248SOL    HW1 1368   1.991   4.958  -0.017 -1.8568  0.2191  0.1200
  248SOL    HW2 1369   2.010   4.853   0.106 -0.4649  0.8539  0.4578
  249SOL     OW 1370   2.010   0.520   0.468 -0.3487  0.7083  0.3350
  249SOL    HW1 1371   2.095   0.563   0.499  0.0090  0.0238  0.3243
  249SOL    HW2 1372   2.015   0.503   0.370 -0.6581  1.0165  0.2645
  250SOL     OW 1373   2.821   1.137   0.320 -0.5975 -0.4148 -0.6359
  250SOL    HW1 1374   2.830   1.210   0.253  1.9318 -0.5192 -0.5115
  250SOL    HW2 1375   2.812   1.176   0.411  2.0625 -0.1596 -0.4176
  251SOL     OW 1376   0.263   0.638   1.118  0.5351 -0.3549 -0.0078
  251SOL    HW1 1377   0.239   0.730   1.087 -3.4467 -1.8284 -2.0412
  251SOL    HW2 1378   0.290   0.582   1.040  0.8782 -1.4755  0.8866
  252SOL     OW 1379   0.729   2.250   0.363  0.0780  0.5937  0.3953
  252SOL    HW1 1380   0.745   2.324   0.429  0.9317  0.5087  0.2990
  252SOL    HW2 1381   0.661   2.186   0.400 -1.1406  1.7420  0.2110
  253SOL     OW 1382   4.451   0.063   0.932  0.5875  0.3495 -0.0936
  253SOL    HW1 1383   4.399   0.001   0.991  0.0823  1.3801  0.5785
  253SOL    HW2 1384   4.463   0.021   0.842 -2.8225  0.6103 -0.8466
  254SOL     OW 1385   3.931   1.062   2.102  0.0046  0.6843  0.4047
  254SOL    HW1 1386   3.917   1.039   2.199  0.9189  2.0276  0.8785
  254SOL    HW2 1387   3.842   1.071   2.057 -0.6013  3.0514  1.8796
  255SOL     OW 1388   0.004   2.708   0.694 -0.8593 -0.1093  0.2215
  255SOL    HW1 1389   0.058   2.641   0.644 -1.5956  1.2030 -2.5289
  255SOL    HW2 1390   0.007   2.687   0.792  1.6730 -2.1027 -0.1782
  256SOL     OW 1391   2.437   0.485   1.667 -0.0007 -0.1942 -0.4230
  256SOL    HW1 1392   2.516   0.523   1.714 -0.7661 -0.6378  1.3162
  256SOL    HW2 1393   2.421   0.391   1.699 -1.8619  0.2650  0.1229
  257SOL     OW 1394   0.169   0.049   0.236 -0.1306  0.5937 -0.4446
  257SOL    HW1 1395   0.260   0.062   0.196 -0.0140 -1.8360 -1.0741
  257SOL    HW2 1396   0.144  -0.047   0.234 -0.7699  0.4236  3.9991
  258SOL     OW 1397   1.114   0.703   3.756  0.5500 -0.3893  0.4077
  258SOL    HW1 1398   1.125   0.738   3.663 -0.0356 -1.1524  0.0384
  258SOL    HW2 1399   1.068   0.771   3.812  1.6295  0.4032  0.3694
  259SOL     OW 1400   0.735   0.039   2.046 -0.5634  1.0663  0.6392
  259SOL    HW1 1401   0.640   0.038   2.015 -0.6348 -2.9244  0.4817
  259SOL    HW2 1402   0.739   0.024   2.144 -0.1807 -2.0259  0.2425
  260SOL     OW 1403   0.775   3.058   2.470 -0.3354 -0.4065  0.5921
  260SOL    HW1 1404   0.683   3.078   2.436 -0.3074  0.4902  1.0378
  260SOL    HW2 1405   0.787   2.958   2.476  0.0843 -0.7424 -3.1892
  261SOL     OW 1406   3.041   1.912   0.113  0.0573 -0.0016  0.6819
  261SOL    HW1 1407   2.991   1.895   0.028 -0.0442 -1.7920  1.0700
  261SOL    HW2 1408   3.102   1.991   0.101  4.2428 -3.2699 -2.9765
  262SOL     OW 1409   3.246   3.986   4.321  0.0903 -0.2818 -0.1025
  262SOL    HW1 1410   3.166   3.925   4.316  0.1719 -0.3219 -1.2728
  262SOL    HW2 1411   3.327   3.932   4.342  0.2298 -0.6879 -1.5276
  263SOL     OW 1412   4.298   2.189   2.184  0.1591  0.4670  0.1106
  263SOL    HW1 1413   4.376   2.142   2.225  0.8858  1.3641 -0.2182
  263SOL    HW2 1414   4.265   2.260   2.246 -0.2475  0.2469  0.1489
  264SOL     OW 1415   3.057   1.305   0.716 -0.4457  0.4020  0.6844
  264SOL    HW1 1416   3.059   1.364   0.635 -1.1626 -1.3395 -0.6582
  264SOL    HW2 1417   2.967   1.313   0.760 -1.2973 -1.1137 -0.6631
  265SOL     OW 1418   3.850   4.708   1.374  1.5265  0.5254 -0.0902
  265SOL    HW1 1419   3.861   4.807   1.383  1.0298  0.6848 -1.0998
  265SOL    HW2 1420   3.753   4.685   1.375  1.3030  0.5542 -4.0834
  266SOL     OW 1421   2.910   4.254   0.833 -0.0836 -0.4375  0.7852
  266SOL    HW1 1422   2.994   4.252   0.779  0.8684  2.1243  1.9987
  266SOL    HW2 1423   2.932   4.233   0.928 -1.1656 -1.5996  0.7936
  267SOL     OW 1424   0.482   4.548   1.059  0.2174 -0.2168 -0.8405
  267SOL    HW1 1425   0.450   4.460   1.024  0.9844 -1.1307  0.6273
  267SOL    HW2 1426   0.563   4.533   1.116 -0.5296  1.2553  0.6864
  268SOL     OW 1427   1.899   3.190   4.473  0.2676  0.7352 -0.8651
  268SOL    HW1 1428   1.864   3.268   4.420  0.1219  1.7468  0.6464
  268SOL    HW2 1429   1.879   3.105   4.424 -0.0086  1.6019 -2.3336
  269SOL     OW 1430   3.509   4.751   1.429 -1.6689  0.5945 -0.1834
  269SOL    HW1 1431   3.486   4.723   1.523 -1.8499  1.4299  0.0392
  269SOL    HW2 1432   3.578   4.824   1.433 -0.0438 -0.8517 -0.7982
  270SOL     OW 1433   0.749   3.815   4.700  0.2740  0.0451  0.5294
  270SOL    HW1 1434   0.713   3.724   4.679  0.6512 -0.0487  0.2697
  270SOL    HW2 1435   0.825   3.807   4.763  1.3476  0.0287 -0.7261
  271SOL     OW 1436   2.603   3.834   1.536 -0.6697  0.1848 -0.4791
  271SOL    HW1 1437   2.623   3.930   1.556  3.8976 -0.4700 -0.7600
  271SOL    HW2 1438   2.641   3.809   1.447  0.5881 -2.3894  0.6602
  272SOL     OW 1439   2.037   1.861   1.844  0.3241  0.3194  0.3086
  272SOL    HW1 1440   2.093   1.872   1.927  0.4448  1.8385  0.0648
  272SOL    HW2 1441   2.097   1.843   1.766  0.2458 -0.6919  0.4794
  273SOL     OW 1442   1.632   4.789   2.608 -0.1699  0.8421 -0.7343
  273SOL    HW1 1443   1.536   4.785   2.636  0.5793  0.2926  2.0933
  273SOL    HW2 1444   1.688   4.739   2.674  2.3819  3.5080 -0.6683
  274SOL     OW 1445   4.129   3.699   2.839  0.3276  0.0283 -0.0740
  274SOL    HW1 1446   4.191   3.768   2.803 -0.7484  0.0788 -1.9707
  274SOL    HW2 1447   4.046   3.743   2.874 -0.1143 -0.2442 -0.7556
  275SOL     OW 1448   0.586   3.892   2.762  0.3903  0.2325  0.1740
  275SOL    HW1 1449   0.634   3.847   2.687 -0.9931  1.5954 -1.6061
  275SOL    HW2 1450   0.571   3.988   2.740  0.1773  0.7556  2.3524
  276SOL     OW 1451   0.696   0.738   4.905 -0.7201  0.6048  0.0628
  276SOL    HW1 1452   0.787   0.754   4.867 -0.7722  3.1545  0.7883
  276SOL    HW2 1453   0.692   0.777   4.997 -3.1207  2.6278 -0.7670
  277SOL     OW 1454   3.256   1.077   2.070 -0.5754 -0.4531 -0.3929
  277SOL    HW1 1455   3.271   1.010   1.998 -2.6534 -0.2596 -1.0763
  277SOL    HW2 1456   3.280   1.168   2.036 -2.9390 -0.1536 -1.4479
  278SOL     OW 1457   1.455   0.250   1.637 -0.2891  0.5056 -0.1963
  278SOL    HW1 1458   1.401   0.294   1.709  1.9986  2.9705  0.1303
  278SOL    HW2 1459   1.541   0.217   1.675  0.1389  0.1191 -1.4563
  279SOL     OW 1460   4.238   1.256   0.462  0.1562 -0.3303 -0.4080
  279SOL    HW1 1461   4.142   1.260   0.490  0.1480 -3.7193  0.5250
  279SOL    HW2 1462   4.244   1.260   0.362 -1.3959 -3.3777 -0.7339
  280SOL     OW 1463   1.734   2.324   1.864 -0.5632  0.8279  0.3998
  280SOL    HW1 1464   1.832   2.317   1.884 -0.0158  2.6148 -1.3134
  280SOL    HW2 1465   1.712   2.266   1.786 -1.3101 -0.9756  1.8712
  281SOL     OW 1466   3.556   2.183   1.392 -0.1310 -0.2092 -0.1851
  281SOL    HW1 1467   3.555   2.231   1.304 -1.1138 -0.7095 -0.4639
  281SOL    HW2 1468   3.650   2.179   1.427  0.1522  0.7228 -0.8012
  282SOL     OW 1469   2.414   2.309   1.157  0.4758  0.7487  0.1443
  282SOL    HW1 1470   2.337   2.337   1.100  1.0642 -0.1560 -1.1167
  282SOL    HW2 1471   2.475   2.387   1.172  1.3318  0.5710 -2.1116
  283SOL     OW 1472   1.658   4.726   0.498  0.8048 -0.4455 -0.0949
  283SOL    HW1 1473   1.625   4.817   0.523 -2.6680 -0.9645 -2.0459
  283SOL    HW2 1474   1.693   4.680   0.579 -0.6155  1.4071  1.6897
  284SOL     OW 1475   1.384   4.586   3.636 -0.0403  0.6923  0.0632
  284SOL    HW1 1476   1.453   4.520   3.607  0.2288  0.4991  1.0891
  284SOL    HW2 1477   1.322   4.606   3.560 -0.0235 -0.6025 -0.3100
  285SOL     OW 1478   1.252   2.221   4.633  0.2425 -0.0396  0.4925
  285SOL    HW1 1479   1.198   2.147   4.674 -0.2422 -0.4746 -0.8917
  285SOL    HW2 1480   1.191   2.282   4.582  0.5941  1.5116  1.8558
  286SOL     OW 1481   3.645   1.966   4.072  0.1682  0.7852 -0.1667
  286SOL    HW1 1482   3.683   1.926   4.155  4.3137  2.0972 -1.1673
  286SOL    HW2 1483   3.603   2.054   4.094  1.9672  1.5271  0.5683
  287SOL     OW 1484   0.822   0.404   4.904 -0.0603 -0.3233  0.2962
  287SOL    HW1 1485   0.901   0.344   4.897  0.2115  0.2015 -1.8040
  287SOL    HW2 1486   0.753   0.376   4.837 -0.1829  1.2850 -0.2953
  288SOL     OW 1487   0.243   3.087   0.068 -0.1892 -0.1839  0.4796
  288SOL    HW1 1488   0.302   3.071   0.147  1.4926  1.7421 -0.2839
  288SOL    HW2 1489   0.168   3.021   0.068 -0.9617  0.4501  4.3137
  289SOL     OW 1490   1.934   2.025   2.248 -0.9793 -0.0734  0.8058
  289SOL    HW1 1491   1.913   2.069   2.335 -0.6078 -3.3035  2.6608
  289SOL    HW2 1492   1.868   1.953   2.229 -2.0664  1.5891 -2.5497
  290SOL     OW 1493   4.567   3.910   1.803 -0.4594  0.2649 -0.6466
  290SOL    HW1 1494   4.527   3.965   1.730 -2.5925 -0.2368  0.0836
  290SOL    HW2 1495   4.566   3.813   1.776  0.5366  0.2552 -0.7064
  291SOL     OW 1496   3.127   0.560   3.208 -0.4694 -0.3208  0.0892
  291SOL    HW1 1497   3.193   0.519   3.145 -0.4736  0.7931 -0.6712
  291SOL    HW2 1498   3.037   0.519   3.194 -0.8563  1.0671 -1.8693
  292SOL     OW 1499   0.613   1.099   2.683 -0.3811  0.2274  0.9170
  292SOL    HW1 1500   0.565   1.039   2.747 -1.2984 -0.3523 -0.2779
  292SOL    HW2 1501   0.630   1.187   2.727 -1.4191  0.0025  1.8083
  293SOL     OW 1502   2.781   4.939   3.274 -0.1685 -0.1240  0.1093
  293SOL    HW1 1503   2.755   4.865   3.212 -1.8173 -0.5162  1.2174
  293SOL    HW2 1504   2.772   4.908   3.368 -1.5574  1.7043  0.6245
  294SOL     OW 1505   4.394   1.178   3.828 -0.2849 -0.7438 -0.6032
  294SOL    HW1 1506   4.452   1.222   3.896 -0.3637  1.0709 -1.6557
  294SOL    HW2 1507   4.436   1.186   3.738 -0.8909 -1.8130 -1.0063
  295SOL     OW 1508   1.369   1.811   1.750 -1.0241 -0.2680  0.0354
  295SOL    HW1 1509   1.401   1.787   1.842 -1.4020  0.7452  0.4500
  295SOL    HW2 1510   1.308   1.890   1.756  0.7387  1.2771 -1.3327
  296SOL     OW 1511   4.323   0.574   1.075  0.2063  0.3286 -0.2273
  296SOL    HW1 1512   4.369   0.656   1.041 -1.1021  1.4633  0.5890
  296SOL    HW2 1513   4.390   0.502   1.091  1.2854  0.9171 -1.8154
  297SOL     OW 1514   3.421   3.804   4.667  0.6809 -0.2871 -0.1690
  297SOL    HW1 1515   3.430   3.858   4.584 -3.8268  0.0007 -0.6733
  297SOL    HW2 1516   3.415   3.865   4.746  1.9675 -0.4416  0.0755
  298SOL     OW 1517   0.492   0.222   1.406 -0.4410 -0.2570 -0.0706
  298SOL    HW1 1518   0.529   0.285   1.475 -1.5964 -0.3813  0.7052
  298SOL    HW2 1519   0.531   0.243   1.317 -0.3425  1.1645  0.2856
  299SOL     OW 1520   2.174   1.096   0.195 -0.6351 -0.9259  0.1303
  299SOL    HW1 1521   2.261   1.076   0.149 -0.4119 -0.0178  0.1363
  299SOL    HW2 1522   2.134   1.179   0.156 -0.9709 -0.7414  0.8455
  300SOL     OW 1523   4.853   4.985   3.778 -0.1479 -0.0562 -0.7257
  300SOL    HW1 1524   4.883   4.905   3.725 -2.0300  0.0332 -2.0181
  300SOL    HW2 1525   4.923   5.056   3.774  0.7021 -0.8964 -1.2051
  301SOL     OW 1526   1.706   1.841   4.769 -0.0579 -0.0095 -0.0402
  301SOL    HW1 1527   1.749   1.765   4.819  2.1340  1.4915  0.5114
  301SOL    HW2 1528   1.718   1.926   4.820 -2.2029  0.8220 -0.7776
  302SOL     OW 1529   1.162   2.649   3.160  0.7636  0.4050 -0.1177
  302SOL    HW1 1530   1.140   2.731   3.108  1.3443  0.5596 -0.1264
  302SOL    HW2 1531   1.137   2.662   3.256  1.7034  0.9567  0.0697
  303SOL     OW 1532   3.130   0.198   2.591  0.0980  0.1047  0.5146
  303SOL    HW1 1533   3.065   0.163   2.659 -0.2505  0.3558  0.3162
  303SOL    HW2 1534   3.187   0.268   2.632 -0.9185  1.1242  0.2491
  304SOL     OW 1535   1.701   4.467   2.685 -0.6068 -0.0814  0.1243
  304SOL    HW1 1536   1.752   4.554   2.690 -1.6282  0.4773  3.7415
  304SOL    HW2 1537   1.642   4.468   2.604 -0.7858  2.7358  0.1727
  305SOL     OW 1538   4.493   2.809   0.286  0.1632 -0.7983 -0.7032
  305SOL    HW1 1539   4.398   2.780   0.285 -0.2874  0.6213 -0.7994
  305SOL    HW2 1540   4.525   2.825   0.192  0.3965 -0.9287 -0.6487
  306SOL     OW 1541   4.825   4.166   4.965  0.3902 -0.0769  0.0257
  306SOL    HW1 1542   4.750   4.232   4.968  0.3351 -0.1054 -0.5278
  306SOL    HW2 1543   4.838   4.136   4.871 -1.1562 -2.6756  0.5597
  307SOL     OW 1544   3.674   0.704   1.355  0.0285  0.6542  0.0971
  307SOL    HW1 1545   3.580   0.683   1.327  0.2930  1.9471 -1.9067
  307SOL    HW2 1546   3.736   0.633   1.322 -0.3364 -1.0505  2.7529
  308SOL     OW 1547   1.955   1.439   2.520  0.1504 -0.6154  0.0202
  308SOL    HW1 1548   1.856   1.425   2.508  0.1564 -1.4261  0.8192
  308SOL    HW2 1549   2.002   1.351   2.511  0.9559 -0.0599 -1.6123
  309SOL     OW 1550   3.321   2.422   1.519  0.6686  0.1509  0.4193
  309SOL    HW1 1551   3.366   2.454   1.436  0.2010  0.2337  0.1932
  309SOL    HW2 1552   3.328   2.323   1.525  0.4531  0.1191  0.1334
  310SOL     OW 1553   2.427   2.417   2.806  0.1337 -0.3931 -0.2674
  310SOL    HW1 1554   2.436   2.427   2.707 -0.1986 -1.9338 -0.4755
  310SOL    HW2 1555   2.458   2.326   2.833  1.3585  0.4122  1.2176
  311SOL     OW 1556   0.181   0.296   1.487 -0.5373  0.6648 -0.0408
  311SOL    HW1 1557   0.262   0.242   1.464 -0.4316  0.6443  0.3799
  311SOL    HW2 1558   0.179   0.378   1.430 -0.4233  0.4797 -0.3177
  312SOL     OW 1559   0.484   3.951   2.443 -0.2608  0.3493  0.3028
  312SOL    HW1 1560   0.519   3.991   2.358  0.5049 -1.1038 -0.0892
  312SOL    HW2 1561   0.388   3.976   2.454 -0.6874 -0.2989 -1.5631
  313SOL     OW 1562   2.444   0.360   1.025  0.6594  0.1468  0.4786
  313SOL    HW1 1563   2.345   0.349   1.027  0.5004  1.3997  0.5341
  313SOL    HW2 1564   2.473   0.391   0.934  0.8239  1.1106  0.8465
  314SOL     OW 1565   2.494   2.876   2.043 -0.3195  0.6551  0.5305
  314SOL    HW1 1566   2.572   2.871   2.105 -0.5200 -0.8238  0.7181
  314SOL    HW2 1567   2.519   2.925   1.960  2.1794 -3.1038 -1.2411
  315SOL     OW 1568   0.519   0.891   3.407 -0.3284  0.1720 -0.7892
  315SOL    HW1 1569   0.448   0.837   3.452  0.9369 -1.1342 -0.3127
  315SOL    HW2 1570   0.541   0.971   3.463 -1.0448  0.3211 -0.7049
  316SOL     OW 1571   4.686   0.898   3.395  0.2501 -0.5803 -0.2150
  316SOL    HW1 1572   4.780   0.903   3.431  0.3455  0.7639 -0.6158
  316SOL    HW2 1573   4.648   0.990   3.390 -1.1866 -1.1371  0.1528
  317SOL     OW 1574   3.351   0.735   3.647  0.3621 -0.2886 -0.2528
  317SOL    HW1 1575   3.430   0.674   3.639 -0.6395 -1.3924 -5.0381
  317SOL    HW2 1576   3.291   0.703   3.720  1.0519 -3.6639 -1.0088
  318SOL     OW 1577   4.997   0.491   4.935 -0.4869 -0.0873 -0.2754
  318SOL    HW1 1578   5.031   0.553   5.006 -3.5648 -0.9454  2.2119
  318SOL    HW2 1579   4.958   0.544   4.860  0.2854  0.8919 -0.0077
  319SOL     OW 1580   3.523   3.561   1.963 -0.9028 -0.0205 -0.4041
  319SOL    HW1 1581   3.436   3.601   1.934 -0.2116  1.2492 -0.8126
  319SOL    HW2 1582   3.598   3.622   1.936  0.2798 -1.9655 -1.7666
  320SOL     OW 1583   1.394   0.734   3.388  0.1045 -1.0242 -0.2444
  320SOL    HW1 1584   1.390   0.733   3.288  0.6067  0.0009 -0.2914
  320SOL    HW2 1585   1.394   0.829   3.420 -0.9255 -1.3430  0.7772
  321SOL     OW 1586   3.593   0.686   2.357 -0.3232  0.4897 -0.3145
  321SOL    HW1 1587   3.548   0.646   2.277 -0.2864  2.8006 -1.5691
  321SOL    HW2 1588   3.692   0.669   2.351 -0.3507  0.4234 -0.6320
  322SOL     OW 1589   1.691   4.655   1.097 -0.2638  0.4922  0.7914
  322SOL    HW1 1590   1.611   4.683   1.044  0.6700  0.6947 -0.5565
  322SOL    HW2 1591   1.773   4.698   1.060  0.6113 -0.4725  1.5216
  323SOL     OW 1592   2.716   4.066   1.578 -1.0606 -0.3176  0.1887
  323SOL    HW1 1593   2.640   4.092   1.636 -2.0894  1.5345 -1.8575
  323SOL    HW2 1594   2.725   4.132   1.503  1.1938 -1.7040 -0.8582
  324SOL     OW 1595   4.432   3.225   0.188 -0.4052  0.3017 -0.9684
  324SOL    HW1 1596   4.399   3.152   0.248 -0.9903 -0.4022 -2.1008
  324SOL    HW2 1597   4.522   3.200   0.152  1.0529  1.7840  1.3662
  325SOL     OW 1598   2.142   4.726   1.160 -0.3040 -0.4399  0.0271
  325SOL    HW1 1599   2.076   4.723   1.085 -0.6099  0.9629  0.2061
  325SOL    HW2 1600   2.103   4.682   1.241 -0.5848 -0.5833 -0.1839
  326SOL     OW 1601   2.168   3.648   3.929  0.5689  0.8846  0.0724
  326SOL    HW1 1602   2.182   3.714   3.855  1.5237  1.8636  1.0897
  326SOL    HW2 1603   2.125   3.566   3.892  0.5111  1.5632 -1.4623
  327SOL     OW 1604   3.777   3.713   4.156 -0.1877  1.1195  0.1861
  327SOL    HW1 1605   3.816   3.799   4.189 -1.6774  1.1638  1.9413
  327SOL    HW2 1606   3.833   3.636   4.188 -0.4018  1.2844  0.9533
  328SOL     OW 1607   1.875   4.386   1.633  0.3949  0.1392  0.5560
  328SOL    HW1 1608   1.828   4.312   1.584  0.0089  1.8065 -1.7308
  328SOL    HW2 1609   1.807   4.448   1.672  0.7187 -0.6229  2.4462
  329SOL     OW 1610   4.627   4.805   4.647  0.2335  0.5122 -0.1407
  329SOL    HW1 1611   4.565   4.763   4.713  0.5449  0.5059  0.1514
  329SOL    HW2 1612   4.720   4.775   4.666  0.6779  2.3847  0.9552
  330SOL     OW 1613   3.364   4.354   0.001 -0.0960 -0.6717 -0.6464
  330SOL    HW1 1614   3.312   4.433  -0.031  1.5828  0.7658 -0.0204
  330SOL    HW2 1615   3.445   4.342  -0.057  1.1419 -0.1739  0.9144
  331SOL     OW 1616   3.909   4.965   1.445 -0.0402  0.0308 -0.4518
  331SOL    HW1 1617   3.930   5.036   1.378  1.6287  2.9948  2.8418
  331SOL    HW2 1618   3.994   4.935   1.489 -1.2129  0.6211  2.4455
  332SOL     OW 1619   4.918   2.721   4.060 -0.5243 -0.2045 -0.4813
  332SOL    HW1 1620   4.906   2.820   4.070 -0.8839  0.2829 -4.2024
  332SOL    HW2 1621   4.830   2.675   4.073 -1.5808  0.6548 -3.5847
  333SOL     OW 1622   2.178   0.295   1.924 -0.1505  0.2591 -0.0436
  333SOL    HW1 1623   2.097   0.334   1.882  0.6774  0.4470 -1.5461
  333SOL    HW2 1624   2.200   0.345   2.008 -3.9421 -2.4063  2.8847
  334SOL     OW 1625   3.486   2.499   1.330 -0.6362  0.0885  0.3077
  334SOL    HW1 1626   3.508   2.456   1.243 -1.4982 -1.0375  0.6220
  334SOL    HW2 1627   3.570   2.507   1.385 -0.1809  0.3431 -0.4000
  335SOL     OW 1628   3.958   2.613   1.421  0.2513 -0.9748 -0.5338
  335SOL    HW1 1629   4.041   2.610   1.476 -0.1517  5.1678  1.1803
  335SOL    HW2 1630   3.974   2.668   1.339 -2.3258  2.4189  0.9788
  336SOL     OW 1631   0.607   1.559   2.995 -1.0342  0.6273 -0.3107
  336SOL    HW1 1632   0.637   1.604   3.079 -2.0134  1.9212 -0.6336
  336SOL    HW2 1633   0.510   1.574   2.981 -1.5599 -2.0758 -0.1732
  337SOL     OW 1634   4.695   1.792   4.796 -0.5037  0.0504  0.2086
  337SOL    HW1 1635   4.681   1.710   4.740 -0.0279 -0.5049  0.8806
  337SOL    HW2 1636   4.616   1.807   4.855 -1.0685  0.7190 -0.6929
  338SOL     OW 1637   1.210   0.599   1.858 -0.5288 -0.1168  1.1421
  338SOL    HW1 1638   1.291   0.545   1.838 -0.9306 -0.2559 -0.1802
  338SOL    HW2 1639   1.185   0.587   1.954 -0.1615 -1.6518  1.0668
  339SOL     OW 1640   3.294   3.968   1.970  0.0455  0.1007 -0.6682
  339SOL    HW1 1641   3.349   3.915   2.035 -1.0261 -0.4402 -0.1741
  339SOL    HW2 1642   3.240   3.906   1.914 -2.2403  0.6652  0.8137
  340SOL     OW 1643   1.344   2.682   4.209  0.8560 -0.3014 -0.0692
  340SOL    HW1 1644   1.305   2.590   4.206 -1.6265  0.6842 -1.2129
  340SOL    HW2 1645   1.375   2.703   4.302  1.9933 -2.4238  0.0968
  341SOL     OW 1646   3.044   1.444   4.306 -0.0493 -0.1178  0.1212
  341SOL    HW1 1647   3.035   1.436   4.405  1.8091  0.3913  0.3729
  341SOL    HW2 1648   3.139   1.467   4.283 -1.3805  5.3258 -1.4109
  342SOL     OW 1649   0.683   0.881   3.761  0.4751  0.1783 -0.3820
  342SOL    HW1 1650   0.729   0.835   3.685  1.3415  1.8805 -0.9483
  342SOL    HW2 1651   0.585   0.882   3.746  0.6636  0.8455 -1.7186
  343SOL     OW 1652   2.325   0.682   0.958  0.0790 -0.2343  0.4350
  343SOL    HW1 1653   2.424   0.687   0.965  0.1125  1.1377 -0.5362
  343SOL    HW2 1654   2.289   0.620   1.028  1.4957  0.3547  1.7358
  344SOL     OW 1655   1.627   3.380   1.040 -0.7568  0.4820  0.1486
  344SOL    HW1 1656   1.712   3.424   1.069  1.2126 -3.3118  0.6768
  344SOL    HW2 1657   1.606   3.304   1.101 -2.3440 -1.1736 -2.3002
  345SOL     OW 1658   0.533   3.192   4.617 -0.4620  0.2424 -1.0223
  345SOL    HW1 1659   0.557   3.100   4.586  0.3753  0.1415 -0.1283
  345SOL    HW2 1660   0.616   3.240   4.646 -1.0359  0.8465 -0.3411
  346SOL     OW 1661   1.040   1.947   3.454 -0.2924 -0.1764 -0.7898
  346SOL    HW1 1662   1.065   2.027   3.509 -1.1401 -0.5700  0.2020
  346SOL    HW2 1663   1.068   1.864   3.503  1.3813 -0.5076 -2.2046
  347SOL     OW 1664   4.898   4.505   3.961  0.9088 -0.0947 -0.0177
  347SOL    HW1 1665   4.928   4.595   3.932 -0.5471  0.6590  0.7111
  347SOL    HW2 1666   4.959   4.470   4.032  1.5733  0.2453 -0.4214
  348SOL     OW 1667   4.640   1.265   2.135 -0.1289 -0.6286  0.0818
  348SOL    HW1 1668   4.633   1.328   2.059  2.0335 -2.3417 -1.6544
  348SOL    HW2 1669   4.548   1.245   2.170 -1.2009  0.0352 -2.2078
  349SOL     OW 1670   2.181   3.903   0.000 -0.6129  0.1741 -0.2957
  349SOL    HW1 1671   2.115   3.829  -0.003 -1.2941  0.8016 -1.4275
  349SOL    HW2 1672   2.269   3.871  -0.035  0.2934 -1.1711  2.8342
  350SOL     OW 1673   0.686   0.607   2.465 -0.1306 -0.4086 -0.6138
  350SOL    HW1 1674   0.767   0.650   2.424  1.4561 -2.0472  0.6511
  350SOL    HW2 1675   0.639   0.553   2.395 -0.5199  1.0152 -1.5029
  351SOL     OW 1676   3.223   2.312   0.203 -0.5418  0.6459  1.0372
  351SOL    HW1 1677   3.195   2.251   0.277  1.2264 -0.8187  0.6067
  351SOL    HW2 1678   3.323   2.320   0.203  0.0801 -2.6420 -3.3590
  352SOL     OW 1679   0.978   2.692   1.759 -0.1179  0.5411 -0.5457
  352SOL    HW1 1680   0.954   2.603   1.799  3.2760 -0.2402  0.0337
  352SOL    HW2 1681   0.990   2.759   1.833 -1.4471  1.1890 -0.8955
  353SOL     OW 1682   4.228   4.893   3.693  0.7234 -0.1665  0.1464
  353SOL    HW1 1683   4.254   4.798   3.707 -1.2873 -1.0879 -1.8243
  353SOL    HW2 1684   4.311   4.950   3.697  2.4717 -2.3733 -1.6365
  354SOL     OW 1685   0.733   3.411   0.414 -1.0123  0.6946 -0.1434
  354SOL    HW1 1686   0.741   3.319   0.452 -3.4208  0.9565  1.2023
  354SOL    HW2 1687   0.810   3.428   0.352  1.4926 -0.8695  2.2848
  355SOL     OW 1688   0.853   3.481   3.885  0.8217  0.5936 -0.2089
  355SOL    HW1 1689   0.764   3.439   3.903  0.5540  1.5165  0.6922
  355SOL    HW2 1690   0.925   3.421   3.919  0.6036 -0.4701 -1.5297
  356SOL     OW 1691   4.161   0.333   3.815 -0.5779 -0.0559  0.4830
  356SOL    HW1 1692   4.092   0.270   3.852  1.3404 -2.4964  0.1359
  356SOL    HW2 1693   4.170   0.318   3.716 -0.7743  1.5164  0.2011
  357SOL     OW 1694   3.205   2.645   3.590  0.8054  0.4456  0.8156
  357SOL    HW1 1695   3.225   2.740   3.615  0.7292  0.7881 -0.3334
  357SOL    HW2 1696   3.223   2.633   3.492 -1.2348 -0.1453  0.4662
  358SOL     OW 1697   1.905   4.054   2.796  0.1729  0.1376 -1.0026
  358SOL    HW1 1698   1.981   4.115   2.772 -0.9801  2.8633  1.6666
  358SOL    HW2 1699   1.820   4.089   2.755 -0.5157  0.4242  0.5997
  359SOL     OW 1700   0.580   2.033   3.609 -0.2802 -0.8383 -0.3163
  359SOL    HW1 1701   0.601   2.126   3.639 -1.5801 -1.2047  1.9683
  359SOL    HW2 1702   0.638   1.968   3.658 -1.7424 -1.3953  0.7613
  360SOL     OW 1703   4.413   0.287   4.701  0.4304 -0.5876 -0.8370
  360SOL    HW1 1704   4.334   0.344   4.723 -0.0832 -1.1786 -1.1183
  360SOL    HW2 1705   4.383   0.193   4.687  1.2908 -0.9655 -0.2143
  361SOL     OW 1706   3.394   0.288   4.492 -1.0871 -0.2827  0.1017
  361SOL    HW1 1707   3.314   0.299   4.550 -0.9661  0.8136  0.0703
  361SOL    HW2 1708   3.412   0.373   4.442  0.5584 -0.2414  0.7029
  362SOL     OW 1709   4.112   3.136   3.069 -0.3072 -0.2443  1.0867
  362SOL    HW1 1710   4.207   3.103   3.073 -0.4209 -0.7360  0.0964
  362SOL    HW2 1711   4.107   3.227   3.111  0.4117 -0.6061  2.0168
  363SOL     OW 1712   2.220   4.983   2.505  0.3955 -0.0438 -0.6614
  363SOL    HW1 1713   2.212   4.906   2.567 -0.1493 -2.5406 -3.5778
  363SOL    HW2 1714   2.143   5.045   2.518 -0.7319 -1.5102 -0.1116
  364SOL     OW 1715   3.599   0.069   3.647 -0.1292 -0.0425  0.1159
  364SOL    HW1 1716   3.516   0.125   3.644  2.0766  3.4777 -0.7151
  364SOL    HW2 1717   3.580  -0.015   3.699 -3.6894  1.4208  1.5230
  365SOL     OW 1718   2.032   0.734   2.831 -0.4444  0.4761  0.3159
  365SOL    HW1 1719   2.049   0.819   2.880 -2.4606  0.0599  1.8764
  365SOL    HW2 1720   2.064   0.657   2.887  2.1290  0.1393 -1.4332
  366SOL     OW 1721   1.037   2.082   0.872  0.7150 -0.2255 -0.4873
  366SOL    HW1 1722   1.027   2.033   0.785 -1.6823 -2.1575  0.7692
  366SOL    HW2 1723   1.008   2.023   0.947  3.1962  1.1964  1.7643
  367SOL     OW 1724   3.914   2.049   0.089  0.6983  0.4054 -0.2967
  367SOL    HW1 1725   3.906   2.066  -0.009 -2.8430  3.4014  0.2828
  367SOL    HW2 1726   3.990   2.103   0.126  3.3651 -2.2216 -1.4276
  368SOL     OW 1727   4.887   3.198   1.030 -1.0212 -0.1159  0.1885
  368SOL    HW1 1728   4.807   3.208   1.089 -2.2075 -1.2564 -1.1787
  368SOL    HW2 1729   4.886   3.271   0.960 -2.5880 -1.8295 -1.7024
  369SOL     OW 1730   1.856   3.005   3.404  1.1033 -0.2116  0.4057
  369SOL    HW1 1731   1.832   3.053   3.319  1.9876 -0.0013  0.2668
  369SOL    HW2 1732   1.890   2.913   3.382  1.0758 -0.2575  0.5526
  370SOL     OW 1733   4.783   4.594   0.844 -0.3149  0.0605  0.2470
  370SOL    HW1 1734   4.802   4.546   0.930  0.8447 -1.5461 -0.8373
  370SOL    HW2 1735   4.788   4.529   0.769 -2.1705  1.2592 -0.9917
  371SOL     OW 1736   2.619   3.373   3.424  0.3358  0.5055 -0.5510
  371SOL    HW1 1737   2.698   3.312   3.426 -1.1272 -1.4706  0.6354
  371SOL    HW2 1738   2.641   3.456   3.372  2.2950 -1.1697 -2.5475
  372SOL     OW 1739   1.449   2.368   2.458  0.0775 -0.2639 -0.9028
  372SOL    HW1 1740   1.458   2.444   2.523  1.1108 -1.0267 -0.1275
  372SOL    HW2 1741   1.536   2.319   2.452 -1.4363 -3.6111  1.4114
  373SOL     OW 1742   2.445   4.136   4.689 -0.4927 -0.7752 -0.5466
  373SOL    HW1 1743   2.401   4.187   4.763  0.1237  2.0476 -1.9723
  373SOL    HW2 1744   2.541   4.118   4.713 -0.4717 -0.4370 -0.3686
  374SOL     OW 1745   4.587   4.750   4.969  0.4753  0.0051  0.0247
  374SOL    HW1 1746   4.571   4.672   5.030 -2.2015  0.6920  0.3380
  374SOL    HW2 1747   4.677   4.790   4.987  1.3414 -2.1542  0.7854
  375SOL     OW 1748   2.089   4.850   3.339 -0.1566  0.5891  0.5390
  375SOL    HW1 1749   2.009   4.900   3.372 -1.4561 -0.1898 -1.2605
  375SOL    HW2 1750   2.102   4.868   3.241  0.0426 -1.5706  0.1106
  376SOL     OW 1751   4.519   0.555   0.722  0.3506 -0.5413  0.6385
  376SOL    HW1 1752   4.468   0.469   0.715 -0.1912 -0.0891 -2.0791
  376SOL    HW2 1753   4.531   0.579   0.819 -1.1478 -2.6644  1.4292
  377SOL     OW 1754   2.655   0.146   3.764 -0.4306  0.1914 -0.5052
  377SOL    HW1 1755   2.646   0.157   3.665 -3.3511 -1.4447 -0.5266
  377SOL    HW2 1756   2.564   0.140   3.806  0.6846 -1.9851  1.9185
  378SOL     OW 1757   1.490   1.671   4.729 -0.1708  0.1600 -0.7759
  378SOL    HW1 1758   1.571   1.721   4.699  2.0917 -3.3170 -1.1159
  378SOL    HW2 1759   1.449   1.717   4.807  2.8743  1.4867  0.1812
  379SOL     OW 1760   0.488   0.968   0.848 -0.9322  1.1309 -0.6400
  379SOL    HW1 1761   0.411   1.017   0.889 -2.0199  0.8084 -2.2140
  379SOL    HW2 1762   0.507   1.005   0.757 -1.2419 -0.7681 -1.5203
  380SOL     OW 1763   1.855   0.428   4.227 -0.5066  0.4733 -0.0270
  380SOL    HW1 1764   1.834   0.378   4.311  0.7523  0.7889  0.4881
  380SOL    HW2 1765   1.780   0.414   4.162 -0.2271 -2.0896  0.0776
  381SOL     OW 1766   0.037   2.193   3.944 -0.6083  0.0107  0.0866
  381SOL    HW1 1767  -0.039   2.252   3.970  1.4173  2.9272 -0.1512
  381SOL    HW2 1768   0.111   2.204   4.010  0.1896 -1.6495 -0.4746
  382SOL     OW 1769   1.134   1.055   4.343 -0.2643 -0.4765 -0.5894
  382SOL    HW1 1770   1.211   0.992   4.335 -0.4422 -0.4714 -2.8391
  382SOL    HW2 1771   1.048   1.004   4.337 -0.4215 -0.1507 -1.1264
  383SOL     OW 1772   3.554   0.114   3.292  0.3246  0.7677  0.0849
  383SOL    HW1 1773   3.637   0.118   3.236 -1.8120  0.4080 -3.4067
  383SOL    HW2 1774   3.543   0.021   3.329  1.3189  0.7527  0.3603
  384SOL     OW 1775   2.458   2.567   2.335 -0.4574 -0.0296 -0.2014
  384SOL    HW1 1776   2.542   2.579   2.282  1.7610 -0.8471  2.8137
  384SOL    HW2 1777   2.436   2.652   2.382 -1.5048  0.2405 -1.1346
  385SOL     OW 1778   4.344   4.084   3.839 -0.0842 -0.4344 -0.0362
  385SOL    HW1 1779   4.377   4.086   3.934  0.4155  6.8458  0.2386
  385SOL    HW2 1780   4.420   4.106   3.777 -1.5302  1.8183 -1.1466
  386SOL     OW 1781   0.103   0.875   2.298 -0.5734  0.4083 -0.1861
  386SOL    HW1 1782   0.198   0.852   2.277 -0.5368 -0.8106  1.1693
  386SOL    HW2 1783   0.085   0.857   2.395 -2.6758 -1.0918 -0.7881
  387SOL     OW 1784   1.771   2.397   2.323  0.0642  0.3518  0.1790
  387SOL    HW1 1785   1.765   2.480   2.379  0.6969  0.1663  0.5344
  387SOL    HW2 1786   1.828   2.415   2.243 -0.6449  0.5487 -0.2913
  388SOL     OW 1787   0.591   4.800   1.923 -0.9449  0.2143  0.2477
  388SOL    HW1 1788   0.582   4.703   1.945 -0.1355  0.4620  1.8296
  388SOL    HW2 1789   0.657   4.842   1.985 -3.1838  2.3327  1.4067
  389SOL     OW 1790   0.287   4.146   0.697  0.2857 -0.8200 -0.0173
  389SOL    HW1 1791   0.383   4.117   0.691  0.8020  0.8333 -0.3355
  389SOL    HW2 1792   0.284   4.242   0.723 -1.3419 -1.1854  1.2760
  390SOL     OW 1793   2.454   1.179   4.767  0.8091 -0.1476 -0.0241
  390SOL    HW1 1794   2.468   1.207   4.862  3.1877 -0.4679 -0.2142
  390SOL    HW2 1795   2.495   1.089   4.752 -0.9104 -0.8077 -1.0131
  391SOL     OW 1796   3.434   2.379   4.729 -0.3387 -0.7663 -0.5874
  391SOL    HW1 1797   3.370   2.416   4.796 -0.8573 -3.1219  0.3057
  391SOL    HW2 1798   3.384   2.327   4.659  0.4533 -1.1812 -0.8653
  392SOL     OW 1799   2.135   1.964   3.686  0.1753  0.4590 -0.3257
  392SOL    HW1 1800   2.211   1.903   3.705  0.6905  1.1111 -0.2389
  392SOL    HW2 1801   2.056   1.939   3.742  1.1819  1.4205  1.6291
  393SOL     OW 1802   3.575   1.612   2.432  0.3632  0.3973 -0.7919
  393SOL    HW1 1803   3.633   1.683   2.394  0.8659  0.4695  0.0688
  393SOL    HW2 1804   3.527   1.564   2.359  1.4788  0.3612 -1.5106
  394SOL     OW 1805   4.840   2.694   2.150  1.0016 -0.6649 -0.2506
  394SOL    HW1 1806   4.913   2.757   2.124 -0.7902  1.4387 -0.4578
  394SOL    HW2 1807   4.818   2.706   2.247  0.9516 -1.3268 -0.1729
  395SOL     OW 1808   4.586   4.169   3.725 -0.6212 -0.0020 -0.7064
  395SOL    HW1 1809   4.514   4.206   3.667  0.0525  0.2527 -1.3963
  395SOL    HW2 1810   4.628   4.243   3.778 -0.6877 -0.1070 -0.5071
  396SOL     OW 1811   0.655   0.551   3.159  0.4751  0.5851  0.3585
  396SOL    HW1 1812   0.617   0.466   3.193 -2.1828  2.1218  1.5750
  396SOL    HW2 1813   0.652   0.551   3.059  1.4473 -1.0971  0.3036
  397SOL     OW 1814   0.975   1.599   2.935  0.0029 -0.3766 -0.8075
  397SOL    HW1 1815   1.053   1.661   2.937  1.7015 -2.3915 -1.0439
  397SOL    HW2 1816   0.896   1.645   2.894  0.4798  2.3043  1.0727
  398SOL     OW 1817   3.588   1.071   3.856  0.3250 -0.2996 -0.7910
  398SOL    HW1 1818   3.594   1.040   3.761  0.1616 -1.4322 -0.4484
  398SOL    HW2 1819   3.623   1.164   3.864  1.6723 -0.7158 -1.7111
  399SOL     OW 1820   3.747   0.759   4.639 -0.7596 -0.2229 -0.6391
  399SOL    HW1 1821   3.692   0.825   4.589 -1.4437  0.3029  0.7684
  399SOL    HW2 1822   3.800   0.703   4.574 -1.7132  0.3354 -1.9241
  400SOL     OW 1823   2.320   3.480   0.136 -0.1902 -0.1814  0.3217
  400SOL    HW1 1824   2.377   3.521   0.206 -0.4397 -0.6026  0.7737
  400SOL    HW2 1825   2.378   3.439   0.065  0.0660  1.0800 -0.2314
  401SOL     OW 1826   1.275   3.833   0.759  0.1850  0.0650 -0.2135
  401SOL    HW1 1827   1.281   3.901   0.832  0.1778 -0.6603  0.4745
  401SOL    HW2 1828   1.203   3.860   0.695 -3.5368 -1.7438  2.7399
  402SOL     OW 1829   4.246   4.747   3.158 -0.2341  1.1670 -0.5473
  402SOL    HW1 1830   4.164   4.750   3.101  0.3753  1.8695 -1.4177
  402SOL    HW2 1831   4.290   4.837   3.158  0.8282  0.6685 -0.5427
  403SOL     OW 1832   4.792   3.899   0.763 -0.5926 -0.2154  0.3250
  403SOL    HW1 1833   4.770   3.992   0.734  1.6366 -0.1880 -1.5741
  403SOL    HW2 1834   4.849   3.855   0.694  3.0196 -1.0932  3.4808
  404SOL     OW 1835   0.715   4.408   2.520  0.0064 -0.2657 -0.5407
  404SOL    HW1 1836   0.763   4.322   2.500  2.7931  0.9755  0.3060
  404SOL    HW2 1837   0.670   4.400   2.609 -3.3078 -2.1416 -2.2188
  405SOL     OW 1838   1.184   0.227   0.977  0.0307  0.4668  0.3498
  405SOL    HW1 1839   1.100   0.277   0.996 -0.3978 -0.2730  0.4535
  405SOL    HW2 1840   1.167   0.129   0.989  0.0828  0.0312 -2.4813
  406SOL     OW 1841   4.789   0.660   4.125  0.4591  0.5822  0.3555
  406SOL    HW1 1842   4.766   0.616   4.038  0.5696  1.7167 -0.2664
  406SOL    HW2 1843   4.885   0.688   4.123  0.9101 -0.8020  1.4819
  407SOL     OW 1844   1.874   1.204   4.141 -0.7567  0.1984  0.2702
  407SOL    HW1 1845   1.819   1.198   4.224 -1.3936  0.2927 -0.1440
  407SOL    HW2 1846   1.925   1.119   4.129 -0.2731  0.3693  1.0184
  408SOL     OW 1847   2.262   2.074   3.209 -0.5260 -0.6134 -0.1622
  408SOL    HW1 1848   2.305   2.136   3.143 -2.2439  0.3935 -0.4037
  408SOL    HW2 1849   2.239   1.988   3.164 -1.2058 -0.1354 -0.7453
  409SOL     OW 1850   3.020   3.906   3.489  0.0629  0.0132  0.9303
  409SOL    HW1 1851   3.099   3.881   3.544  0.8826 -0.2886 -0.3304
  409SOL    HW2 1852   2.939   3.856   3.520  1.0492 -2.0786  0.2553
  410SOL     OW 1853   3.532   1.547   0.999 -0.3248  0.2047  0.5310
  410SOL    HW1 1854   3.528   1.450   1.020 -0.5003  0.5285  2.1895
  410SOL    HW2 1855   3.620   1.584   1.030  0.0607  0.4538 -0.7817
  411SOL     OW 1856   3.026   3.366   2.313  0.0522 -0.4771 -0.4964
  411SOL    HW1 1857   3.019   3.439   2.381 -0.4069 -1.4148  0.5017
  411SOL    HW2 1858   3.012   3.404   2.222  3.7078  1.3857 -0.4500
  412SOL     OW 1859   2.077   4.205   3.681  0.4235  0.5596 -0.0190
  412SOL    HW1 1860   2.150   4.188   3.615  0.7951 -0.0887  0.5461
  412SOL    HW2 1861   1.989   4.177   3.642  1.1239 -4.5353  1.4206
  413SOL     OW 1862   4.988   4.962   2.767 -0.6576  0.5299  0.4810
  413SOL    HW1 1863   4.995   5.040   2.829  1.8140  2.3575 -1.8487
  413SOL    HW2 1864   5.062   4.898   2.785  0.9877  1.8073 -1.3731
  414SOL     OW 1865   0.777   2.631   2.057  0.5451  0.1990 -0.0510
  414SOL    HW1 1866   0.838   2.696   2.011 -0.8420  1.3694 -0.2895
  414SOL    HW2 1867   0.804   2.622   2.153  1.8383 -0.2644 -0.4270
  415SOL     OW 1868   3.300   2.772   2.794 -0.2960  0.2454 -0.4479
  415SOL    HW1 1869   3.333   2.719   2.716  0.4238  0.2451 -0.1546
  415SOL    HW2 1870   3.326   2.868   2.783 -0.8399  0.3847 -0.5596
  416SOL     OW 1871   3.381   3.598   2.502 -0.8930 -0.8600  0.4558
  416SOL    HW1 1872   3.349   3.684   2.542 -1.5818 -0.7425 -0.3194
  416SOL    HW2 1873   3.473   3.578   2.535  0.7159  1.8993 -1.9312
  417SOL     OW 1874   2.779   1.879   3.036 -0.0759 -0.6135  0.6503
  417SOL    HW1 1875   2.827   1.881   2.948 -1.1188  0.5197  0.0783
  417SOL    HW2 1876   2.844   1.859   3.108  0.9996 -0.5410 -0.2666
  418SOL     OW 1877   4.996   2.273   1.065  0.6648  0.5864  0.3990
  418SOL    HW1 1878   4.924   2.217   1.024 -0.6886  2.7932 -0.4698
  418SOL    HW2 1879   5.000   2.255   1.163 -0.4972 -0.1968  0.3297
  419SOL     OW 1880   4.147   4.637   1.997 -0.2925 -0.1846 -0.2670
  419SOL    HW1 1881   4.049   4.619   1.989 -0.3341 -1.1779  1.8197
  419SOL    HW2 1882   4.198   4.565   1.951 -0.5324 -0.4616 -0.1022
  420SOL     OW 1883   0.120   2.507   0.954  0.3544  0.1977 -1.0462
  420SOL    HW1 1884   0.200   2.487   0.898  0.9380 -1.8449  0.4041
  420SOL    HW2 1885   0.080   2.421   0.987 -1.5003  1.2387 -0.4327
  421SOL     OW 1886   4.933   3.452   1.225  0.5895 -1.0291 -0.6826
  421SOL    HW1 1887   4.983   3.366   1.215  1.6815 -0.5270  0.2394
  421SOL    HW2 1888   4.981   3.525   1.176  0.5660 -0.6147 -0.0983
  422SOL     OW 1889   4.336   0.352   2.351  0.5713 -0.0446  0.5459
  422SOL    HW1 1890   4.426   0.321   2.382  1.3317  2.2144  0.7512
  422SOL    HW2 1891   4.318   0.315   2.260  1.8999 -0.1959  0.3257
  423SOL     OW 1892   2.596   2.500   4.698 -0.1940 -0.0222 -0.6165
  423SOL    HW1 1893   2.677   2.476   4.751  0.5819 -0.4178 -1.9351
  423SOL    HW2 1894   2.523   2.434   4.717 -0.5656  0.8721  1.2848
  424SOL     OW 1895   0.219   2.300   3.752  1.3035 -0.1832 -0.2239
  424SOL    HW1 1896   0.242   2.337   3.842  2.1069 -1.1584 -0.0108
  424SOL    HW2 1897   0.186   2.206   3.762  1.7410 -0.4214 -0.9754
  425SOL     OW 1898   1.652   3.488   2.358 -0.7161 -0.3865  0.4658
  425SOL    HW1 1899   1.674   3.495   2.455  1.0875 -1.8760  0.2070
  425SOL    HW2 1900   1.555   3.464   2.348 -0.4249 -2.4734  2.0101
  426SOL     OW 1901   4.818   3.839   1.932  0.1380 -0.1482 -0.0259
  426SOL    HW1 1902   4.769   3.916   1.893 -1.5739 -2.0527 -1.8994
  426SOL    HW2 1903   4.807   3.759   1.873  0.0878 -2.3998  2.8229
  427SOL     OW 1904   2.117   3.919   2.089  0.1595 -0.2388 -0.7882
  427SOL    HW1 1905   2.165   3.941   2.174 -2.1380  0.8895  0.3327
  427SOL    HW2 1906   2.177   3.935   2.011  1.3056  2.0023  0.4569
  428SOL     OW 1907   1.210   2.891   4.101  0.5317 -0.5866  0.8940
  428SOL    HW1 1908   1.256   2.805   4.122  0.8796 -0.0255  2.5904
  428SOL    HW2 1909   1.276   2.955   4.061  0.8849 -0.2902  1.9285
  429SOL     OW 1910   4.043   1.228   1.165 -0.3599 -0.2288  0.5211
  429SOL    HW1 1911   4.136   1.264   1.180  0.0943 -0.3315 -1.7228
  429SOL    HW2 1912   4.045   1.128   1.170 -0.6118 -0.1915  1.6459
  430SOL     OW 1913   2.332   4.741   1.422 -0.2957  0.1257  0.1838
  430SOL    HW1 1914   2.402   4.806   1.394  0.6025 -1.1396 -0.5853
  430SOL    HW2 1915   2.248   4.791   1.445  0.4837  1.5712  0.0118
  431SOL     OW 1916   1.688   4.010   2.614  0.1114  0.5717  0.5354
  431SOL    HW1 1917   1.667   4.055   2.527 -2.3507 -0.8621  0.3195
  431SOL    HW2 1918   1.739   3.926   2.596  4.1088  2.6562  0.9038
  432SOL     OW 1919   4.253   0.537   3.993  0.3441  0.1891  0.7679
  432SOL    HW1 1920   4.198   0.616   3.967 -0.7956 -0.9352 -0.4012
  432SOL    HW2 1921   4.247   0.467   3.921 -0.1478 -1.6839  2.5402
  433SOL     OW 1922   1.594   1.600   0.018  0.3553 -0.6977 -0.7320
  433SOL    HW1 1923   1.652   1.623  -0.060  0.6877 -1.4713 -0.7238
  433SOL    HW2 1924   1.640   1.625   0.103 -0.6605  1.6176 -0.7870
  434SOL     OW 1925   2.919   0.292   2.865 -0.1045 -0.0532  0.2935
  434SOL    HW1 1926   2.837   0.237   2.850  1.1393 -1.8145 -0.4982
  434SOL    HW2 1927   2.937   0.348   2.785  0.1490 -0.6458 -0.0720
  435SOL     OW 1928   0.183   3.903   0.324  0.6871 -1.1162 -0.1147
  435SOL    HW1 1929   0.236   3.895   0.239 -0.3936 -1.9613 -0.7479
  435SOL    HW2 1930   0.138   3.815   0.342  0.4766 -0.7769  1.0536
  436SOL     OW 1931   3.391   1.480   1.746 -0.5428  0.4076  0.2552
  436SOL    HW1 1932   3.328   1.425   1.691 -0.2324 -0.2684  0.5698
  436SOL    HW2 1933   3.361   1.576   1.744 -1.5147  0.1187  0.2984
  437SOL     OW 1934   1.096   0.188   3.525 -0.8785  0.3818  0.9024
  437SOL    HW1 1935   1.084   0.280   3.562 -1.7782 -0.5007  2.9961
  437SOL    HW2 1936   1.163   0.139   3.580  2.3002  0.7765 -2.2866
  438SOL     OW 1937   3.063   1.841   3.209  0.0298  0.0601  0.2052
  438SOL    HW1 1938   3.086   1.898   3.287  0.3460  1.4862 -0.8735
  438SOL    HW2 1939   3.102   1.749   3.221  0.5030  0.4118  1.4621
  439SOL     OW 1940   1.268   2.817   0.866  0.3682  0.4129 -0.1904
  439SOL    HW1 1941   1.281   2.718   0.862 -1.6328  0.0769  0.5441
  439SOL    HW2 1942   1.268   2.847   0.962  1.6180  1.2534 -0.4267
  440SOL     OW 1943   0.076   2.485   3.571 -0.5403 -0.2475  0.6872
  440SOL    HW1 1944   0.159   2.448   3.614 -0.5532  1.2418  2.0842
  440SOL    HW2 1945   0.073   2.457   3.475  1.0325 -1.2046  0.8818
  441SOL     OW 1946   0.731   3.993   0.919 -0.6554 -0.6878  0.7350
  441SOL    HW1 1947   0.656   4.036   0.970 -0.0890 -1.5571  2.3644
  441SOL    HW2 1948   0.709   3.897   0.903  0.7615 -1.3974  2.6911
  442SOL     OW 1949   0.385   1.292   0.720  0.0193  0.4407  0.0021
  442SOL    HW1 1950   0.324   1.213   0.711  1.0058 -0.2409 -0.9940
  442SOL    HW2 1951   0.363   1.360   0.650 -0.1065  0.5439  0.1422
  443SOL     OW 1952   3.879   2.376   0.004 -1.0018 -0.0164 -0.3680
  443SOL    HW1 1953   3.859   2.284   0.038 -1.8876 -0.8068 -2.7941
  443SOL    HW2 1954   3.841   2.386  -0.088 -1.3082  2.9638  0.0055
  444SOL     OW 1955   0.885   4.959   1.627 -0.3303 -0.0731  0.5138
  444SOL    HW1 1956   0.875   4.893   1.553 -2.0083  2.5259 -1.8027
  444SOL    HW2 1957   0.868   4.914   1.714  0.1404 -2.9547 -0.7711
  445SOL     OW 1958   1.778   3.672   4.368  0.0881 -0.5923 -0.5466
  445SOL    HW1 1959   1.721   3.692   4.448 -1.5144 -1.5363 -1.3966
  445SOL    HW2 1960   1.866   3.720   4.377 -1.3299  2.0808  0.1630
  446SOL     OW 1961   0.784   4.099   1.759 -0.1145  0.2113 -0.7323
  446SOL    HW1 1962   0.700   4.055   1.793 -0.4810 -0.1616 -2.0711
  446SOL    HW2 1963   0.771   4.198   1.757  0.2898  0.3354  1.1710
  447SOL     OW 1964   1.300   1.806   2.330 -0.3568 -0.4416 -0.2177
  447SOL    HW1 1965   1.298   1.903   2.355 -0.8139 -0.2665 -0.9024
  447SOL    HW2 1966   1.341   1.796   2.240 -1.7458 -0.7155 -0.8429
  448SOL     OW 1967   1.708   1.764   1.977 -0.5338 -0.5968  0.3082
  448SOL    HW1 1968   1.708   1.771   2.077 -1.2792 -1.0285  0.3403
  448SOL    HW2 1969   1.774   1.695   1.949 -1.6023 -1.7698  0.6098
  449SOL     OW 1970   1.353   2.100   3.622 -0.3788 -0.7245  0.0397
  449SOL    HW1 1971   1.419   2.078   3.694 -1.0978 -0.1393  0.8957
  449SOL    HW2 1972   1.399   2.099   3.534  0.3236 -2.4013  0.3868
  450SOL     OW 1973   3.411   4.595   4.723  0.1285 -1.3117 -0.3319
  450SOL    HW1 1974   3.351   4.523   4.687  0.9837 -3.0611  1.5386
  450SOL    HW2 1975   3.422   4.667   4.654 -5.2206 -0.0926 -0.3350
  451SOL     OW 1976   0.827   1.761   2.750 -1.3164  0.2013 -0.0795
  451SOL    HW1 1977   0.745   1.712   2.719 -2.6843  3.1663 -1.5420
  451SOL    HW2 1978   0.901   1.745   2.684 -1.7181  0.0669 -0.5051
  452SOL     OW 1979   4.728   0.523   3.611 -0.7358  1.1233 -0.3711
  452SOL    HW1 1980   4.778   0.524   3.524 -0.1465 -2.4799 -0.1913
  452SOL    HW2 1981   4.674   0.440   3.618  0.9276  0.1226  3.5704
  453SOL     OW 1982   2.378   0.048   0.354  0.8507 -0.0259 -0.6197
  453SOL    HW1 1983   2.442  -0.025   0.329  0.1189 -0.6453 -0.7308
  453SOL    HW2 1984   2.429   0.132   0.373  1.6876 -0.4872 -0.7641
  454SOL     OW 1985   0.957   0.181   3.855 -0.3153  0.3943 -1.1142
  454SOL    HW1 1986   1.013   0.256   3.892  0.7193 -0.0009 -1.8284
  454SOL    HW2 1987   0.863   0.191   3.888  0.5903 -0.2008  2.0351
  455SOL     OW 1988   1.127   0.297   4.124  0.9301 -0.2785 -0.1061
  455SOL    HW1 1989   1.066   0.287   4.203  1.0809 -1.4368 -0.1146
  455SOL    HW2 1990   1.197   0.226   4.127  1.6439  0.3831 -0.6689
  456SOL     OW 1991   4.788   0.011   0.050 -1.0662  0.7311  0.4514
  456SOL    HW1 1992   4.835   0.044   0.132  1.0295 -1.2995  0.1787
  456SOL    HW2 1993   4.809  -0.085   0.036 -4.3526  0.0212 -0.5046
  457SOL     OW 1994   0.441   2.528   3.887  0.2648 -0.0476 -0.0577
  457SOL    HW1 1995   0.440   2.612   3.941 -1.7628  0.8383 -1.3650
  457SOL    HW2 1996   0.417   2.451   3.945 -0.8796  0.7348  0.5431
  458SOL     OW 1997   0.874   3.546   0.239 -0.0744 -0.0858  0.0241
  458SOL    HW1 1998   0.970   3.567   0.224 -0.5852  1.1445 -1.8079
  458SOL    HW2 1999   0.829   3.526   0.152 -1.6371  0.0481  0.7482
  459SOL     OW 2000   1.542   4.364   2.238 -0.2123  0.3504  0.4779
  459SOL    HW1 2001   1.544   4.350   2.139 -0.2966  0.4203  0.4666
  459SOL    HW2 2002   1.461   4.319   2.276 -1.3130  2.0509  0.2517
  460SOL     OW 2003   3.529   1.273   2.865  0.8064 -1.1308 -0.2217
  460SOL    HW1 2004   3.538   1.324   2.780  3.0627 -4.2925 -2.0869
  460SOL    HW2 2005   3.617   1.273   2.913 -0.1621 -0.2791  1.6669
  461SOL     OW 2006   2.869   4.331   2.294  1.0844 -0.1154 -0.1151
  461SOL    HW1 2007   2.828   4.372   2.213  0.5779  0.8350  0.6043
  461SOL    HW2 2008   2.963   4.365   2.304  0.8455  0.4663  0.1843
  462SOL     OW 2009   4.710   3.672   4.345  0.6397  0.3319  0.6747
  462SOL    HW1 2010   4.654   3.597   4.310  2.7038 -1.4852  1.0358
  462SOL    HW2 2011   4.748   3.724   4.269 -1.1992  1.4206  0.4237
  463SOL     OW 2012   1.356   1.337   1.654  0.6379 -0.3042  0.3206
  463SOL    HW1 2013   1.290   1.267   1.625  0.7930  0.2041 -1.3600
  463SOL    HW2 2014   1.448   1.298   1.653  0.7532 -0.0555 -0.8488
  464SOL     OW 2015   2.267   1.296   1.160  0.3051 -0.1429  0.2215
  464SOL    HW1 2016   2.227   1.305   1.252 -2.6015 -1.1944 -0.8213
  464SOL    HW2 2017   2.284   1.199   1.141  1.1439  0.0973 -0.2807
  465SOL     OW 2018   4.930   4.081   0.932 -0.6176 -0.4556 -0.1352
  465SOL    HW1 2019   4.999   4.017   0.966 -1.0324 -1.4593 -1.0795
  465SOL    HW2 2020   4.973   4.167   0.905  0.2509 -1.0243 -0.5988
  466SOL     OW 2021   1.024   3.581   3.650  0.8772 -0.1795 -0.1173
  466SOL    HW1 2022   1.081   3.500   3.633  1.8178  0.5193 -0.3827
  466SOL    HW2 2023   0.939   3.553   3.695  1.9830 -1.1472  1.5141
  467SOL     OW 2024   1.073   3.838   3.530 -1.2986  0.8084 -0.3462
  467SOL    HW1 2025   1.101   3.880   3.616 -0.5095 -0.7020  0.1761
  467SOL    HW2 2026   1.098   3.741   3.531 -3.9208  0.0485 -1.0848
  468SOL     OW 2027   2.536   2.089   1.478 -0.3995  0.3541  0.7311
  468SOL    HW1 2028   2.504   2.026   1.407 -0.8220  0.0849  1.1477
  468SOL    HW2 2029   2.457   2.126   1.527 -0.0949  0.0896  1.4348
  469SOL     OW 2030   2.794   4.451   3.132  0.5430 -0.1309  0.1865
  469SOL    HW1 2031   2.765   4.522   3.195 -1.1598 -1.2070  0.6725
  469SOL    HW2 2032   2.823   4.370   3.183  1.2895 -0.2441 -0.3860
  470SOL     OW 2033   4.685   4.021   2.843 -1.6158  0.6647 -0.6482
  470SOL    HW1 2034   4.706   4.014   2.940 -2.6793  1.5519 -0.3360
  470SOL    HW2 2035   4.743   3.958   2.792 -1.9537 -0.7816  0.6829
  471SOL     OW 2036   1.988   1.710   3.737  0.3921 -0.2319 -0.3031
  471SOL    HW1 2037   2.084   1.687   3.719 -0.4533 -3.0277 -1.8044
  471SOL    HW2 2038   1.954   1.657   3.814 -0.0295  0.5538  0.0626
  472SOL     OW 2039   2.055   4.212   1.762 -0.2790  0.4779  0.2878
  472SOL    HW1 2040   2.129   4.161   1.718 -0.4168 -0.1532  0.7950
  472SOL    HW2 2041   2.046   4.301   1.717 -0.9086 -0.4280 -1.4821
  473SOL     OW 2042   3.280   2.985   2.086 -0.5102 -0.1351  0.2948
  473SOL    HW1 2043   3.269   2.899   2.037 -0.6277  0.5832 -0.9711
  473SOL    HW2 2044   3.282   2.967   2.185  1.8245 -1.8271  0.0077
  474SOL     OW 2045   3.962   3.442   2.014 -0.6222 -0.1208  0.2132
  474SOL    HW1 2046   3.913   3.360   1.983 -1.6459  0.8068 -0.7432
  474SOL    HW2 2047   4.060   3.432   1.993 -0.3777 -1.9268  1.9839
  475SOL     OW 2048   4.865   1.301   3.498  0.1490 -0.2102  0.9931
  475SOL    HW1 2049   4.937   1.297   3.568 -0.2424  0.3161  1.4373
  475SOL    HW2 2050   4.884   1.378   3.436 -0.9011  0.9914  2.1090
  476SOL     OW 2051   0.133   1.443   2.741  0.2268  0.3104 -0.4570
  476SOL    HW1 2052   0.084   1.489   2.816  1.4052  0.8271  0.0127
  476SOL    HW2 2053   0.123   1.497   2.657 -0.2055  0.2867 -0.4233
  477SOL     OW 2054   4.195   4.192   2.137 -0.1958  0.1806 -0.1324
  477SOL    HW1 2055   4.181   4.103   2.093  0.0717 -0.0033  0.1482
  477SOL    HW2 2056   4.291   4.201   2.165  0.5842  1.8186 -2.9122
  478SOL     OW 2057   3.016   4.832   1.228 -0.3833 -0.2170 -0.2549
  478SOL    HW1 2058   3.113   4.824   1.250 -0.4770 -1.7747 -0.2677
  478SOL    HW2 2059   3.004   4.841   1.129 -0.3176 -2.7103 -0.5478
  479SOL     OW 2060   1.155   4.030   1.571  0.2047  0.7571  0.4556
  479SOL    HW1 2061   1.158   4.123   1.535  0.9836  0.7970  0.6070
  479SOL    HW2 2062   1.115   4.030   1.662 -1.8846  0.6434 -0.4060
  480SOL     OW 2063   1.140   1.335   2.386  0.1403 -0.9695  0.0925
  480SOL    HW1 2064   1.069   1.265   2.397  1.6979 -2.2433  3.1016
  480SOL    HW2 2065   1.118   1.415   2.442  0.2390 -0.6531 -0.3158
  481SOL     OW 2066   3.241   3.676   4.377 -0.0790  0.1985 -0.6522
  481SOL    HW1 2067   3.323   3.720   4.339 -0.7562  2.2541  0.0846
  481SOL    HW2 2068   3.263   3.637   4.467  0.5249 -0.9929 -1.2957
  482SOL     OW 2069   4.879   0.292   1.238  0.0397 -0.4357  0.3176
  482SOL    HW1 2070   4.887   0.355   1.315 -0.4218  0.7283 -0.5543
  482SOL    HW2 2071   4.793   0.241   1.245 -1.6031  1.9434 -0.9939
  483SOL     OW 2072   4.586   4.150   2.505  0.7411 -0.2598  0.7093
  483SOL    HW1 2073   4.670   4.173   2.554  1.3096  1.0568 -0.8253
  483SOL    HW2 2074   4.602   4.071   2.447  0.9682  0.0838  0.3020
  484SOL     OW 2075   4.565   0.718   1.381 -0.0732 -0.2681 -0.7234
  484SOL    HW1 2076   4.624   0.798   1.367 -1.7831  1.4653  1.2653
  484SOL    HW2 2077   4.470   0.747   1.384 -0.8620 -2.6128 -1.1654
  485SOL     OW 2078   0.810   3.040   2.154 -0.4989 -0.1469 -0.5430
  485SOL    HW1 2079   0.793   2.942   2.154  2.3396 -0.7620  1.4676
  485SOL    HW2 2080   0.852   3.067   2.241 -2.4417  3.1447 -0.4554
  486SOL     OW 2081   1.745   3.525   2.081  0.1412 -0.1904 -0.3376
  486SOL    HW1 2082   1.790   3.613   2.073 -2.1567  1.0319 -0.6872
  486SOL    HW2 2083   1.682   3.526   2.158 -2.2113 -0.3460 -2.1287
  487SOL     OW 2084   0.510   3.339   0.145  0.1357  0.6980  0.1222
  487SOL    HW1 2085   0.594   3.304   0.188  0.4692  2.1632  0.7197
  487SOL    HW2 2086   0.508   3.312   0.049  1.2546  0.5854  0.1163
  488SOL     OW 2087   3.080   3.245   3.977 -0.4414  0.4754  0.1382
  488SOL    HW1 2088   3.078   3.295   4.063 -0.8788  1.8728 -0.6682
  488SOL    HW2 2089   3.081   3.309   3.901  0.9036 -0.7173 -0.9052
  489SOL     OW 2090   2.539   3.553   1.092 -0.0837 -0.6146  0.2318
  489SOL    HW1 2091   2.469   3.520   1.156  1.1712 -1.4576  1.2319
  489SOL    HW2 2092   2.617   3.491   1.094 -0.6953 -1.7008 -3.5334
  490SOL     OW 2093   3.929   0.059   4.959  0.0757  0.2520  0.1651
  490SOL    HW1 2094   3.916   0.085   4.863 -0.5849  0.1935  0.2348
  490SOL    HW2 2095   3.992  -0.019   4.964  1.2692  1.1712 -0.1100
  491SOL     OW 2096   0.613   0.635   1.210  0.2329  0.5157 -0.0218
  491SOL    HW1 2097   0.582   0.719   1.166  4.3190  1.6460 -1.1429
  491SOL    HW2 2098   0.604   0.645   1.309  1.2130  2.5963 -0.0897
  492SOL     OW 2099   2.203   4.646   3.487 -0.2394  0.3093 -0.0951
  492SOL    HW1 2100   2.143   4.636   3.566 -0.5691 -1.1042 -0.4979
  492SOL    HW2 2101   2.155   4.697   3.415 -1.1976 -1.2472 -0.6094
  493SOL     OW 2102   4.034   3.641   3.928 -0.7300 -0.2561 -0.2383
  493SOL    HW1 2103   4.080   3.721   3.890 -2.9562  2.0438  1.5264
  493SOL    HW2 2104   3.953   3.620   3.873  1.3142 -3.2730 -2.3952
  494SOL     OW 2105   1.205   3.399   4.964  0.5634  0.1008  0.1889
  494SOL    HW1 2106   1.229   3.316   5.014  1.3648 -0.4630 -1.0754
  494SOL    HW2 2107   1.237   3.392   4.870 -1.3298  0.9152 -0.5682
  495SOL     OW 2108   4.641   1.685   0.601  0.2084 -0.7349 -0.3621
  495SOL    HW1 2109   4.546   1.664   0.628 -0.0463  1.2989  0.4407
  495SOL    HW2 2110   4.703   1.625   0.652 -0.5341 -0.4446  0.9448
  496SOL     OW 2111   2.707   1.702   0.833  0.1851 -0.0139  0.0765
  496SOL    HW1 2112   2.758   1.711   0.918 -0.0902  2.8954  0.0234
  496SOL    HW2 2113   2.612   1.679   0.853 -0.2155  2.0025  0.7282
  497SOL     OW 2114   1.565   1.006   3.046 -0.3901 -0.3907 -0.1983
  497SOL    HW1 2115   1.565   0.922   3.099  1.8524 -0.2648  0.0930
  497SOL    HW2 2116   1.480   1.012   2.994 -1.4367 -1.8629  1.2405
  498SOL     OW 2117   1.297   2.803   2.892  0.3678  0.5530  0.0528
  498SOL    HW1 2118   1.305   2.803   2.792 -0.7839  2.4466 -0.0983
  498SOL    HW2 2119   1.291   2.709   2.926 -1.1031 -0.0946 -1.8327
  499SOL     OW 2120   3.779   3.455   4.499 -0.5762 -0.2563 -0.8709
  499SOL    HW1 2121   3.794   3.378   4.437 -3.9103 -1.1516 -0.7610
  499SOL    HW2 2122   3.795   3.541   4.451  1.6635 -0.9597 -1.4661
  500SOL     OW 2123   1.712   4.407   4.646 -0.2828  0.2648 -0.3286
  500SOL    HW1 2124   1.764   4.401   4.560 -2.6746  2.1632 -2.0395
  500SOL    HW2 2125   1.732   4.495   4.690  1.4652 -0.9749  1.5598
  501SOL     OW 2126   3.335   0.040   2.231  0.1815  1.0923 -0.5054
  501SOL    HW1 2127   3.360   0.045   2.134 -0.1273  1.8806 -0.5533
  501SOL    HW2 2128   3.280   0.120   2.255 -2.4091 -0.5862 -0.4555
  502SOL     OW 2129   2.391   0.674   2.987 -0.8393  0.4860  0.3823
  502SOL    HW1 2130   2.488   0.664   2.961  0.0571 -0.8557  3.6679
  502SOL    HW2 2131   2.374   0.767   3.017 -0.0742  0.3505  1.3070
  503SOL     OW 2132   4.079   2.208   3.932 -0.3819 -0.1714  0.0574
  503SOL    HW1 2133   4.119   2.119   3.951 -1.2849 -0.7471 -0.6827
  503SOL    HW2 2134   3.982   2.198   3.911 -0.8853  1.1528  1.4905
  504SOL     OW 2135   0.519   4.281   4.579 -0.0825  0.4605 -0.4751
  504SOL    HW1 2136   0.476   4.364   4.543 -1.3361  0.0404  0.0389
  504SOL    HW2 2137   0.456   4.204   4.571 -1.0756  0.5825  3.8858
  505SOL     OW 2138   0.222   0.384   1.957 -0.3549  0.0626  0.1318
  505SOL    HW1 2139   0.169   0.411   1.877  0.2996 -2.3127 -1.2200
  505SOL    HW2 2140   0.165   0.389   2.039 -1.3057  1.7089 -0.5815
  506SOL     OW 2141   0.984   0.355   1.492 -0.4681 -0.7221  0.3826
  506SOL    HW1 2142   1.027   0.371   1.404 -6.1036  0.3957 -2.6208
  506SOL    HW2 2143   0.971   0.442   1.539  0.7530 -1.1000  1.4843
  507SOL     OW 2144   0.719   0.257   4.116  0.1404  0.8702  0.4668
  507SOL    HW1 2145   0.625   0.223   4.126  0.0050  1.6239  2.1689
  507SOL    HW2 2146   0.718   0.339   4.058 -0.1004  0.3715 -0.2582
  508SOL     OW 2147   4.718   4.971   2.063 -0.1224  0.5799  1.2407
  508SOL    HW1 2148   4.717   4.956   2.161 -1.2758  0.0756  1.1647
  508SOL    HW2 2149   4.630   4.944   2.023  0.1197  1.3028  0.1474
  509SOL     OW 2150   4.212   3.680   0.188 -0.1747 -0.0737 -0.3262
  509SOL    HW1 2151   4.265   3.761   0.213 -1.0409  0.3922  0.0341
  509SOL    HW2 2152   4.192   3.627   0.271  2.6328 -2.1237 -0.7879
  510SOL     OW 2153   3.047   4.309   1.522 -0.1300  0.8383 -0.1698
  510SOL    HW1 2154   3.009   4.335   1.433 -0.9479 -1.8332 -0.6831
  510SOL    HW2 2155   3.146   4.314   1.519 -0.0022 -1.3892 -2.0546
  511SOL     OW 2156   3.317   0.193   2.931 -0.7416 -0.2226 -0.0189
  511SOL    HW1 2157   3.249   0.127   2.897 -1.8563  0.0384  1.6048
  511SOL    HW2 2158   3.297   0.216   3.026  1.1392  0.5423  0.2424
  512SOL     OW 2159   0.244   2.313   2.105 -0.7218 -0.3780 -0.7821
  512SOL    HW1 2160   0.193   2.234   2.069  0.0231 -0.8582 -0.7994
  512SOL    HW2 2161   0.182   2.392   2.112 -1.4847 -0.9694 -0.7305
  513SOL     OW 2162   0.489   3.398   2.076 -0.1989 -0.0279  0.4994
  513SOL    HW1 2163   0.550   3.421   2.001  0.0211 -0.6186  0.4920
  513SOL    HW2 2164   0.529   3.323   2.130  0.2170  1.1406  1.9036
  514SOL     OW 2165   2.635   1.881   2.478  0.3994  0.0091 -0.9324
  514SOL    HW1 2166   2.649   1.908   2.383  0.0007  1.2587 -0.6656
  514SOL    HW2 2167   2.551   1.924   2.512  1.0746  0.4148  0.2795
  515SOL     OW 2168   0.120   0.412   3.091 -0.5500  0.0878  0.1637
  515SOL    HW1 2169   0.102   0.506   3.065 -0.7829  0.9086  2.9508
  515SOL    HW2 2170   0.051   0.382   3.158 -1.1643 -2.4823 -1.4447
  516SOL     OW 2171   1.803   2.812   0.625  0.2663  1.0682  0.2767
  516SOL    HW1 2172   1.732   2.882   0.615  0.4520  1.3718  1.0131
  516SOL    HW2 2173   1.774   2.729   0.579 -0.6531  1.1315  0.7169
  517SOL     OW 2174   1.285   4.130   4.480  0.7625  0.1072  0.3964
  517SOL    HW1 2175   1.250   4.223   4.472 -0.3512 -0.4867 -3.1192
  517SOL    HW2 2176   1.209   4.065   4.485  1.4229 -0.8030 -0.7281
  518SOL     OW 2177   0.456   1.226   4.142 -0.2462 -0.4807 -0.1470
  518SOL    HW1 2178   0.520   1.260   4.073  1.5294 -1.2578  1.0327
  518SOL    HW2 2179   0.474   1.129   4.159  0.7191  0.1008  2.7186
  519SOL     OW 2180   0.664   4.280   1.398 -0.0577  0.7144 -0.3178
  519SOL    HW1 2181   0.670   4.240   1.489  1.5845  2.2688  0.3232
  519SOL    HW2 2182   0.703   4.217   1.331 -2.5398 -1.0421 -0.2337
  520SOL     OW 2183   1.476   1.853   0.580 -0.0165 -0.8438  0.2840
  520SOL    HW1 2184   1.387   1.860   0.536  0.0008 -0.7618  0.2613
  520SOL    HW2 2185   1.503   1.757   0.587 -0.1050 -0.8676  0.2881
  521SOL     OW 2186   1.435   3.718   3.564  0.7006  0.2572 -0.2483
  521SOL    HW1 2187   1.407   3.797   3.508 -2.0146 -0.5757 -0.2210
  521SOL    HW2 2188   1.378   3.639   3.540  0.6910 -0.6336  2.4167
  522SOL     OW 2189   0.023   4.105   0.624 -0.6007 -0.0306  0.2317
  522SOL    HW1 2190   0.121   4.123   0.625 -0.6085  0.3300 -1.6720
  522SOL    HW2 2191   0.003   4.027   0.683  0.4367  1.4123  2.7009
  523SOL     OW 2192   2.833   1.128   1.896  0.2260 -0.1544  0.7995
  523SOL    HW1 2193   2.735   1.114   1.887  0.1842  0.5493  0.0828
  523SOL    HW2 2194   2.880   1.089   1.817  0.1751  2.7630 -0.8390
  524SOL     OW 2195   4.204   4.905   1.368  0.3508 -0.8530  0.7101
  524SOL    HW1 2196   4.159   4.933   1.283  2.6828  2.6522  0.4420
  524SOL    HW2 2197   4.301   4.929   1.364  0.5477 -0.4536  4.3896
  525SOL     OW 2198   2.424   4.632   4.012  0.0074 -0.5930 -0.7306
  525SOL    HW1 2199   2.393   4.724   3.987  0.1364 -0.5592 -0.7714
  525SOL    HW2 2200   2.512   4.639   4.058 -0.6260 -0.5839  0.5047
  526SOL     OW 2201   4.585   4.918   1.622 -0.2822  0.4568 -0.6278
  526SOL    HW1 2202   4.552   4.824   1.625  1.5779 -0.2176 -0.3581
  526SOL    HW2 2203   4.621   4.938   1.531  0.9392  0.3023 -0.1984
  527SOL     OW 2204   3.028   3.967   2.913  1.0570  0.3557 -0.0858
  527SOL    HW1 2205   3.082   4.018   2.847 -0.7998  1.6783 -0.6698
  527SOL    HW2 2206   2.950   4.022   2.942 -0.1860 -1.5794  0.4551
  528SOL     OW 2207   0.029   4.914   3.454  0.3268 -0.0945  0.4946
  528SOL    HW1 2208   0.093   4.856   3.403  1.7827  2.4830 -0.8237
  528SOL    HW2 2209  -0.055   4.863   3.471 -0.3537 -1.2910 -4.5927
  529SOL     OW 2210   0.825   4.518   0.117  0.5693  0.3251 -0.6313
  529SOL    HW1 2211   0.915   4.558   0.100  0.5055  0.6058 -0.3126
  529SOL    HW2 2212   0.809   4.444   0.052  1.8078 -0.9694  0.4736
  530SOL     OW 2213   1.662   0.422   1.335  0.1636 -0.3923 -1.2588
  530SOL    HW1 2214   1.592   0.423   1.263  1.0225  2.3697 -2.1762
  530SOL    HW2 2215   1.646   0.498   1.398  1.3907 -0.7509 -0.4748
  531SOL     OW 2216   4.944   2.598   0.336 -0.4146  0.5046  0.1982
  531SOL    HW1 2217   4.885   2.547   0.399 -1.7866  2.9377  1.0160
  531SOL    HW2 2218   4.894   2.620   0.253 -0.5739  2.1574  0.6863
  532SOL     OW 2219   4.932   4.570   3.668 -0.5067 -0.4214 -0.6296
  532SOL    HW1 2220   5.009   4.632   3.656  0.8054 -1.7483  0.4412
  532SOL    HW2 2221   4.956   4.501   3.737 -3.9580  1.2222  2.5787
  533SOL     OW 2222   3.273   1.681   3.195 -0.8965 -0.8784 -0.1438
  533SOL    HW1 2223   3.315   1.670   3.105  0.9015  1.0961  0.3848
  533SOL    HW2 2224   3.327   1.744   3.250 -2.8681 -0.7314  1.7646
  534SOL     OW 2225   0.194   0.941   4.935 -0.8775 -0.0837 -0.3282
  534SOL    HW1 2226   0.177   0.843   4.942  0.1486 -0.3651 -1.5611
  534SOL    HW2 2227   0.276   0.957   4.882 -0.2623  1.4179  0.9949
  535SOL     OW 2228   0.555   1.532   3.699  0.1184 -0.4340  0.1716
  535SOL    HW1 2229   0.508   1.470   3.636 -0.4869 -4.7443  4.2953
  535SOL    HW2 2230   0.646   1.495   3.718  0.6356  1.2642  1.1323
  536SOL     OW 2231   2.868   3.388   2.734  0.6349 -0.4730 -0.1500
  536SOL    HW1 2232   2.903   3.369   2.826  1.3883  2.0734  0.1594
  536SOL    HW2 2233   2.770   3.369   2.730 -0.1320  2.3396  2.2098
  537SOL     OW 2234   1.853   0.580   4.622 -0.2094  0.2248  0.6827
  537SOL    HW1 2235   1.869   0.499   4.679 -2.9636  0.2631  1.6744
  537SOL    HW2 2236   1.864   0.663   4.677 -0.7123  0.3461  0.6135
  538SOL     OW 2237   2.152   4.413   3.868 -0.1272 -0.0134 -1.3226
  538SOL    HW1 2238   2.077   4.392   3.931  1.4628  0.0950  0.7086
  538SOL    HW2 2239   2.192   4.328   3.833  0.7772 -0.1837  0.0729
  539SOL     OW 2240   0.519   4.185   2.650 -0.2659 -0.2337  0.0936
  539SOL    HW1 2241   0.457   4.199   2.572  0.2311 -1.4904 -0.5499
  539SOL    HW2 2242   0.467   4.197   2.735 -0.8430  1.0401 -0.3977
  540SOL     OW 2243   0.915   0.530   4.154  0.0198 -0.1331 -0.7248
  540SOL    HW1 2244   0.930   0.506   4.250  0.5082  0.5856 -0.6181
  540SOL    HW2 2245   0.826   0.494   4.124 -1.2272  1.5851  0.6698
  541SOL     OW 2246   3.066   0.881   3.013  0.1289 -1.0514 -0.4118
  541SOL    HW1 2247   3.121   0.895   3.095 -0.8572 -1.8301  0.4147
  541SOL    HW2 2248   3.015   0.796   3.021 -1.1422 -0.3990 -1.1679
  542SOL     OW 2249   4.471   3.972   3.565 -0.1365  0.2566  0.1932
  542SOL    HW1 2250   4.533   4.042   3.599 -0.2249 -1.7344  5.2807
  542SOL    HW2 2251   4.376   4.005   3.574 -0.1136  0.1139  1.0464
  543SOL     OW 2252   2.431   1.146   2.821  0.0486 -0.8377 -0.5918
  543SOL    HW1 2253   2.393   1.053   2.812 -0.2711 -0.7235 -0.4448
  543SOL    HW2 2254   2.382   1.208   2.760  0.1570 -0.7341 -0.5730
  544SOL     OW 2255   2.731   2.533   4.267  1.5240 -0.3643  0.9386
  544SOL    HW1 2256   2.694   2.465   4.330 -0.1561 -2.6065 -2.2008
  544SOL    HW2 2257   2.811   2.494   4.220  1.7560  0.6199  0.4972
  545SOL     OW 2258   0.761   4.115   4.616  0.0453  0.3000 -0.0948
  545SOL    HW1 2259   0.754   4.015   4.608  2.1170  0.2921 -3.5723
  545SOL    HW2 2260   0.675   4.156   4.586 -0.1935 -0.3997 -0.4104
  546SOL     OW 2261   4.608   1.377   1.801 -0.3574 -0.1539 -0.2643
  546SOL    HW1 2262   4.525   1.402   1.850  0.6209  1.8994  0.4763
  546SOL    HW2 2263   4.622   1.278   1.807 -1.6332 -0.2798  1.4155
  547SOL     OW 2264   2.245   0.623   1.227  0.0449  1.0461  0.9717
  547SOL    HW1 2265   2.282   0.572   1.305  3.5170  2.0126  0.1032
  547SOL    HW2 2266   2.199   0.705   1.260  3.4775  2.6945  2.1045
  548SOL     OW 2267   0.298   4.827   1.257 -0.4177  0.3424  0.4341
  548SOL    HW1 2268   0.261   4.736   1.240  0.3940  0.3803 -1.8095
  548SOL    HW2 2269   0.294   4.882   1.173 -3.8545  3.5870  2.3951
  549SOL     OW 2270   0.351   3.760   1.152 -0.0914  0.2004 -0.3094
  549SOL    HW1 2271   0.276   3.751   1.086  0.6798  0.5151 -1.2640
  549SOL    HW2 2272   0.330   3.834   1.216 -1.6279 -1.2154  0.9066
  550SOL     OW 2273   0.539   4.548   0.629 -0.7734  0.7855 -0.7419
  550SOL    HW1 2274   0.616   4.522   0.688 -1.2119  1.1370  0.0036
  550SOL    HW2 2275   0.573   4.566   0.537 -0.3446 -1.6847 -1.1439
  551SOL     OW 2276   1.620   4.519   1.649  0.4225 -0.5005 -0.5889
  551SOL    HW1 2277   1.666   4.604   1.676  2.1804 -2.0913  1.7867
  551SOL    HW2 2278   1.521   4.536   1.643  0.5591  1.4109  1.2622
  552SOL     OW 2279   2.619   0.399   3.486  0.7212 -0.3068  0.1987
  552SOL    HW1 2280   2.590   0.304   3.498 -1.6972  0.6688  3.3893
  552SOL    HW2 2281   2.652   0.435   3.573 -0.7524  2.4579 -0.2908
  553SOL     OW 2282   3.183   1.546   3.464  0.1938 -0.6459  0.2389
  553SOL    HW1 2283   3.113   1.529   3.534  1.0542 -0.6411  1.1254
  553SOL    HW2 2284   3.219   1.458   3.431  0.2034 -0.6441  0.2442
  554SOL     OW 2285   3.336   2.973   4.380 -0.9695  0.0389  0.3989
  554SOL    HW1 2286   3.413   2.932   4.429 -0.4989  0.1888 -0.2079
  554SOL    HW2 2287   3.369   3.049   4.324 -2.1030  2.9098  3.2856
  555SOL     OW 2288   1.188   1.470   0.503 -0.7496  0.4322 -0.3968
  555SOL    HW1 2289   1.171   1.550   0.447  0.9077 -0.8924 -2.9541
  555SOL    HW2 2290   1.199   1.390   0.445 -1.7910 -1.6096  2.0284
  556SOL     OW 2291   1.434   4.585   4.260 -0.1730  0.7339 -0.2167
  556SOL    HW1 2292   1.427   4.506   4.321 -0.3514  0.8916 -0.0362
  556SOL    HW2 2293   1.367   4.576   4.186  0.5516  0.1560 -0.8321
  557SOL     OW 2294   2.737   1.244   3.397 -0.0379  0.0523 -0.1892
  557SOL    HW1 2295   2.685   1.178   3.342 -1.1440 -2.4118  3.4142
  557SOL    HW2 2296   2.679   1.322   3.419 -0.3795 -0.0849 -0.5889
  558SOL     OW 2297   4.653   1.638   0.171  0.9876 -0.4109  0.0423
  558SOL    HW1 2298   4.686   1.701   0.101 -0.8978  1.6491  0.8902
  558SOL    HW2 2299   4.719   1.634   0.246  0.3726  2.0567  0.8034
  559SOL     OW 2300   0.448   2.801   0.746  0.9153 -0.0498 -0.1817
  559SOL    HW1 2301   0.514   2.871   0.772  0.5933  1.6176 -3.3542
  559SOL    HW2 2302   0.356   2.828   0.776  1.2504 -1.1143  1.9799
  560SOL     OW 2303   0.045   1.039   1.381 -0.1771 -0.4790 -0.6175
  560SOL    HW1 2304   0.079   1.042   1.287  2.2409 -1.3765  0.1305
  560SOL    HW2 2305   0.115   1.077   1.442 -2.5527  2.0966  0.6750
  561SOL     OW 2306   2.720   4.265   4.962 -0.0840 -0.3668 -0.3228
  561SOL    HW1 2307   2.818   4.267   4.985 -0.5804  1.1409  2.0117
  561SOL    HW2 2308   2.695   4.173   4.933  1.7663 -1.1252  0.3166
  562SOL     OW 2309   1.358   4.659   1.638 -0.6669 -0.0288 -0.1641
  562SOL    HW1 2310   1.358   4.756   1.615 -2.3626  0.2713  0.8561
  562SOL    HW2 2311   1.346   4.605   1.555  2.5180  0.4394 -1.0556
  563SOL     OW 2312   1.546   1.975   2.009  0.0920  0.1824 -0.5826
  563SOL    HW1 2313   1.617   1.909   1.987  0.2274 -0.2117  0.8865
  563SOL    HW2 2314   1.456   1.934   1.997  0.1785 -0.5523  0.9559
  564SOL     OW 2315   2.470   1.831   1.253  0.3631 -0.2871 -0.1327
  564SOL    HW1 2316   2.433   1.759   1.194  0.4305  0.4439 -1.0889
  564SOL    HW2 2317   2.427   1.918   1.231  1.7334  0.3514 -0.3998
  565SOL     OW 2318   0.756   2.553   3.654  0.1515 -0.2576  0.6328
  565SOL    HW1 2319   0.675   2.609   3.673 -1.1232 -0.9651 -2.1370
  565SOL    HW2 2320   0.757   2.528   3.557  1.1750 -4.1793  1.4718
  566SOL     OW 2321   2.178   3.291   2.041  0.2063  0.6339 -0.4692
  566SOL    HW1 2322   2.249   3.359   2.021  0.4436  0.1615 -1.2845
  566SOL    HW2 2323   2.126   3.272   1.958  1.2853 -1.4589 -0.7395
  567SOL     OW 2324   4.705   1.594   3.916  0.1099  0.1091  0.1486
  567SOL    HW1 2325   4.690   1.678   3.865 -0.6907 -0.2028 -0.1390
  567SOL    HW2 2326   4.626   1.575   3.974 -0.2254 -1.0625 -0.6630
  568SOL     OW 2327   1.179   1.383   1.399  0.5319  1.6331  0.1414
  568SOL    HW1 2328   1.198   1.432   1.484  0.1077  1.2671  0.4517
  568SOL    HW2 2329   1.127   1.441   1.337 -2.9772  0.5273  1.8245
  569SOL     OW 2330   0.886   0.055   1.099 -0.4073 -0.0596 -0.4225
  569SOL    HW1 2331   0.823   0.104   1.159 -0.3804  1.2171 -1.3964
  569SOL    HW2 2332   0.966   0.026   1.152 -1.2527 -0.6413  0.5580
  570SOL     OW 2333   0.349   1.959   4.057 -0.0149  0.1429  0.4297
  570SOL    HW1 2334   0.386   1.905   3.981  1.0133  1.3023  0.0660
  570SOL    HW2 2335   0.416   2.028   4.083 -1.4585  1.5278  0.5806
  571SOL     OW 2336   3.094   2.620   0.411  0.6625 -0.5750  0.7400
  571SOL    HW1 2337   3.062   2.701   0.462  1.1587  1.7638 -2.3706
  571SOL    HW2 2338   3.015   2.563   0.389 -0.2049  0.7243  0.3247
  572SOL     OW 2339   4.507   1.566   4.136  0.4817  0.2229  0.2737
  572SOL    HW1 2340   4.575   1.563   4.209  0.5820 -3.6132  0.2321
  572SOL    HW2 2341   4.430   1.624   4.165  1.7462  1.0326  2.2013
  573SOL     OW 2342   1.799   4.178   2.199 -0.8025 -0.1360 -0.2953
  573SOL    HW1 2343   1.808   4.277   2.198 -2.3994  0.0763 -2.6075
  573SOL    HW2 2344   1.890   4.136   2.201  0.3049  1.5204 -4.3518
  574SOL     OW 2345   1.836   2.348   4.913  0.2277 -0.5291 -0.7511
  574SOL    HW1 2346   1.907   2.392   4.858 -0.0082  0.9326  0.0475
  574SOL    HW2 2347   1.868   2.342   5.008 -0.7675  0.3409 -0.3418
  575SOL     OW 2348   1.271   3.791   1.867  0.1461  0.2974 -0.7436
  575SOL    HW1 2349   1.179   3.784   1.905 -0.9223  2.3073 -2.7244
  575SOL    HW2 2350   1.270   3.755   1.773  1.5151 -0.1256 -0.6093
  576SOL     OW 2351   1.669   4.848   2.353 -0.3153  0.1758  0.8426
  576SOL    HW1 2352   1.657   4.809   2.444 -0.2544  1.7785  1.5726
  576SOL    HW2 2353   1.755   4.899   2.350 -1.6634  2.5636  0.8208
  577SOL     OW 2354   1.117   0.811   2.033  0.1867  0.1734 -0.2004
  577SOL    HW1 2355   1.138   0.736   2.095  2.2969  0.8972  0.0431
  577SOL    HW2 2356   1.097   0.775   1.942 -0.8742 -0.7755  0.3923
  578SOL     OW 2357   3.067   3.763   0.182 -0.7272  0.1753 -0.3564
  578SOL    HW1 2358   3.047   3.853   0.142 -1.0953  1.9146  3.3449
  578SOL    HW2 2359   3.128   3.774   0.260  1.2082 -3.1816 -1.2109
  579SOL     OW 2360   4.591   0.079   2.866 -0.5107  0.0953  0.2944
  579SOL    HW1 2361   4.650   0.008   2.828 -1.2206 -0.6049  0.4918
  579SOL    HW2 2362   4.496   0.062   2.839 -1.2516 -1.0971  3.2531
  580SOL     OW 2363   4.849   4.763   1.090  0.0441  0.2574 -0.4220
  580SOL    HW1 2364   4.758   4.795   1.062 -1.7313 -0.3290  3.8336
  580SOL    HW2 2365   4.856   4.767   1.190  4.9376  0.5972 -0.5269
  581SOL     OW 2366   4.697   0.384   2.118  0.4253 -0.2890  0.5670
  581SOL    HW1 2367   4.697   0.340   2.208  1.1427 -1.8996 -0.1782
  581SOL    HW2 2368   4.773   0.348   2.064 -2.0551 -2.1511 -1.9784
  582SOL     OW 2369   4.093   2.689   2.392 -0.8705  0.2092 -0.9975
  582SOL    HW1 2370   4.010   2.676   2.338 -1.4674  3.6386 -1.1352
  582SOL    HW2 2371   4.072   2.678   2.489 -1.7329  1.7566 -0.9769
  583SOL     OW 2372   1.209   3.389   2.625  0.1360  0.1204  0.4121
  583SOL    HW1 2373   1.259   3.392   2.712  0.7078 -1.9756  0.2186
  583SOL    HW2 2374   1.173   3.296   2.611 -2.4019  1.1311 -0.2740
  584SOL     OW 2375   2.801   3.967   1.162  0.1722 -0.5015 -0.0142
  584SOL    HW1 2376   2.795   3.960   1.062 -2.0414 -0.4947  0.0553
  584SOL    HW2 2377   2.712   3.996   1.198  1.9222  3.6764  1.6556
  585SOL     OW 2378   3.449   2.238   0.605  0.8786  0.6319 -0.2346
  585SOL    HW1 2379   3.433   2.152   0.652  3.3398  1.1263  1.7606
  585SOL    HW2 2380   3.376   2.302   0.626  0.9811  0.2290  1.5075
  586SOL     OW 2381   1.356   2.212   0.154  1.0122  0.3059 -0.0433
  586SOL    HW1 2382   1.321   2.275   0.223  0.6557 -0.9278  0.9395
  586SOL    HW2 2383   1.351   2.256   0.064 -1.2843  0.9044  0.3008
  587SOL     OW 2384   1.793   2.188   2.726  0.2165  0.2038  0.9982
  587SOL    HW1 2385   1.808   2.134   2.808  0.8409  2.7216  2.6423
  587SOL    HW2 2386   1.845   2.273   2.731 -0.9309  1.1502 -1.3179
  588SOL     OW 2387   4.064   3.175   1.412 -0.5134  0.7265  0.9917
  588SOL    HW1 2388   4.032   3.093   1.366 -0.5278  1.1415  0.2371
  588SOL    HW2 2389   4.126   3.225   1.352 -0.6997  1.3955  1.3381
  589SOL     OW 2390   0.295   3.034   2.025 -0.4866 -0.2013  0.1338
  589SOL    HW1 2391   0.218   2.984   2.066  2.8800 -4.6564  1.7941
  589SOL    HW2 2392   0.295   3.018   1.926 -1.8546  0.2520  0.0332
  590SOL     OW 2393   0.034   2.607   2.580  0.0070 -0.7663  0.5823
  590SOL    HW1 2394   0.065   2.683   2.638  0.7715  0.0289 -0.8210
  590SOL    HW2 2395   0.003   2.642   2.492 -0.5556 -2.0084  0.2592
  591SOL     OW 2396   2.918   4.433   3.532 -0.0913 -0.0054  0.8023
  591SOL    HW1 2397   2.980   4.355   3.524  0.9911  0.7070  1.8917
  591SOL    HW2 2398   2.837   4.407   3.585 -1.3302 -1.2529 -1.5596
  592SOL     OW 2399   1.076   0.192   4.381  0.1470  0.0867 -0.5734
  592SOL    HW1 2400   1.144   0.131   4.423  0.2197  1.3070  1.1778
  592SOL    HW2 2401   0.984   0.162   4.406  0.1806  0.6398  0.2323
  593SOL     OW 2402   3.982   0.358   4.630  0.5127  0.4706  0.2586
  593SOL    HW1 2403   4.017   0.269   4.659  1.4386  0.6129 -0.3722
  593SOL    HW2 2404   4.057   0.424   4.626  0.7890  0.1969 -3.4548
  594SOL     OW 2405   1.040   1.056   1.829 -0.2474  0.1533  1.1745
  594SOL    HW1 2406   1.083   1.062   1.919 -0.3816  0.0357  1.2467
  594SOL    HW2 2407   0.999   1.144   1.806  2.0127  1.0262  0.0997
  595SOL     OW 2408   0.743   4.949   2.729 -0.5369 -0.1382 -0.8065
  595SOL    HW1 2409   0.742   5.027   2.791 -2.8629  0.8928 -2.0281
  595SOL    HW2 2410   0.682   4.878   2.763 -0.9429 -0.0432 -1.3266
  596SOL     OW 2411   0.996   0.756   4.031  0.6242  0.2425 -0.0779
  596SOL    HW1 2412   0.914   0.814   4.034  2.3811  2.8823  1.2368
  596SOL    HW2 2413   0.970   0.660   4.043 -2.3852  0.7711 -1.4881
  597SOL     OW 2414   4.758   2.085   3.803 -0.0637 -0.3240  0.1572
  597SOL    HW1 2415   4.755   2.156   3.733  0.4205 -1.3613 -0.9391
  597SOL    HW2 2416   4.745   2.127   3.893 -0.2963  1.0783 -0.5062
  598SOL     OW 2417   3.058   2.734   0.668 -0.1084  0.2166 -0.1011
  598SOL    HW1 2418   2.966   2.750   0.634  0.5029  0.6792 -1.6273
  598SOL    HW2 2419   3.106   2.821   0.678 -0.3060  0.1072  2.1436
  599SOL     OW 2420   4.142   1.153   3.896 -0.1679  0.3340  0.5950
  599SOL    HW1 2421   4.236   1.141   3.863 -0.8468 -0.3987 -1.1722
  599SOL    HW2 2422   4.102   1.064   3.917 -0.2896  0.6832  1.9688
  600SOL     OW 2423   0.959   0.421   4.436 -0.2067  0.5851 -0.7292
  600SOL    HW1 2424   0.928   0.434   4.530  2.4860  1.1066  0.1736
  600SOL    HW2 2425   1.042   0.364   4.435  0.9348  2.1368 -2.5629
  601SOL     OW 2426   4.421   1.656   0.743 -0.4677  0.1179  0.7913
  601SOL    HW1 2427   4.457   1.644   0.836 -1.6975 -2.4440  1.0214
  601SOL    HW2 2428   4.322   1.664   0.747 -0.8257 -2.6340 -0.3812
  602SOL     OW 2429   3.455   2.789   0.639 -0.1561  0.3808  0.7727
  602SOL    HW1 2430   3.510   2.717   0.597 -1.7936 -0.2101 -0.5101
  602SOL    HW2 2431   3.405   2.838   0.567  0.1261  2.1249  1.7189
  603SOL     OW 2432   2.970   4.726   3.337 -0.1753  0.1121  0.6610
  603SOL    HW1 2433   3.021   4.778   3.269  2.7212 -3.3944 -0.1335
  603SOL    HW2 2434   3.005   4.747   3.428 -1.1881  1.7056  0.7297
  604SOL     OW 2435   4.157   4.479   2.267  0.3140  0.5418  0.8390
  604SOL    HW1 2436   4.190   4.388   2.244  0.5775  1.0788 -1.1309
  604SOL    HW2 2437   4.198   4.546   2.205 -2.4970  1.5748 -0.0846
  605SOL     OW 2438   1.828   1.041   4.968 -0.3196 -1.1300  0.6001
  605SOL    HW1 2439   1.918   1.051   4.925 -1.2256 -0.6962 -1.3342
  605SOL    HW2 2440   1.766   1.111   4.932 -1.7632 -2.1729  0.9571
  606SOL     OW 2441   3.174   1.788   0.985 -0.2896 -0.0292  0.0149
  606SOL    HW1 2442   3.152   1.876   0.945 -3.2382 -0.6486  0.0730
  606SOL    HW2 2443   3.166   1.793   1.085 -0.4063 -0.3462  0.0245
  607SOL     OW 2444   3.986   1.697   4.813  0.1158  0.3531  0.6748
  607SOL    HW1 2445   4.065   1.741   4.772  0.7307  0.2396  1.7017
  607SOL    HW2 2446   3.973   1.730   4.907  0.3299 -1.2879  1.3224
  608SOL     OW 2447   2.256   3.689   2.230 -0.4381  0.9000 -1.2749
  608SOL    HW1 2448   2.191   3.677   2.154  1.4286 -1.8022 -2.6186
  608SOL    HW2 2449   2.226   3.635   2.308 -1.0040  1.5659 -1.0243
  609SOL     OW 2450   2.799   4.090   4.282 -0.7153 -0.0034  0.5389
  609SOL    HW1 2451   2.775   3.998   4.313  3.3838 -0.2377  3.8783
  609SOL    HW2 2452   2.843   4.085   4.192  0.6155 -1.5925  1.2201
  610SOL     OW 2453   0.138   0.991   3.616 -0.2629  0.2681 -0.0541
  610SOL    HW1 2454   0.153   0.990   3.517 -0.6024  2.2419 -0.1576
  610SOL    HW2 2455   0.210   0.938   3.661  2.0006  2.2643 -1.1260
  611SOL     OW 2456   4.649   1.147   1.458 -1.2132 -0.3680  0.4896
  611SOL    HW1 2457   4.580   1.206   1.499 -0.8588  1.3179 -1.2452
  611SOL    HW2 2458   4.608   1.090   1.387 -1.2671 -1.1715  1.1499
  612SOL     OW 2459   4.854   0.098   1.721 -0.0122 -0.1280  0.4211
  612SOL    HW1 2460   4.869   0.016   1.666 -1.4347  0.4535 -0.9450
  612SOL    HW2 2461   4.765   0.138   1.697  0.9748  2.2574  0.4358
  613SOL     OW 2462   1.157   0.139   0.639  0.0911 -0.3532 -0.4706
  613SOL    HW1 2463   1.062   0.158   0.613  0.6576 -0.4269 -2.8907
  613SOL    HW2 2464   1.161   0.116   0.736 -1.9646  2.2477  0.3669
  614SOL     OW 2465   2.522   2.081   4.267  0.3288 -0.1623 -0.0271
  614SOL    HW1 2466   2.475   2.010   4.214  2.7837 -2.1221  0.2111
  614SOL    HW2 2467   2.527   2.165   4.213  0.0697 -1.1360 -1.6362
  615SOL     OW 2468   2.642   3.982   4.877  0.1924  0.1424  0.1097
  615SOL    HW1 2469   2.565   3.960   4.817 -0.1144  0.9778  0.1795
  615SOL    HW2 2470   2.627   3.940   4.967  1.6936 -2.9788 -0.9493
  616SOL     OW 2471   0.229   3.994   2.436 -0.3994  0.0205  0.7843
  616SOL    HW1 2472   0.203   4.034   2.524 -3.1553 -4.3206  2.2786
  616SOL    HW2 2473   0.156   3.934   2.404  2.1318 -1.6142 -2.5358
  617SOL     OW 2474   0.487   4.037   3.011  0.3208 -0.6233  0.2348
  617SOL    HW1 2475   0.480   3.955   2.954  0.4340 -0.2128 -0.3796
  617SOL    HW2 2476   0.580   4.073   3.005  0.5440 -0.9857  1.2644
  618SOL     OW 2477   3.921   1.236   0.345  0.9904  0.1093 -0.1249
  618SOL    HW1 2478   3.847   1.242   0.278  1.2964 -0.1826 -0.4964
  618SOL    HW2 2479   3.892   1.177   0.421  1.3161 -1.1225 -0.9239
  619SOL     OW 2480   2.311   0.336   3.152 -0.1015  0.2635  0.3388
  619SOL    HW1 2481   2.224   0.333   3.202  0.2997 -2.5327  1.0248
  619SOL    HW2 2482   2.385   0.312   3.214  0.8304  0.0619 -0.8271
  620SOL     OW 2483   3.125   0.564   4.844  0.1148 -0.3715 -0.4199
  620SOL    HW1 2484   3.178   0.644   4.816  0.1351  0.3962  1.6013
  620SOL    HW2 2485   3.064   0.536   4.770  3.0384 -1.0910 -2.7115
  621SOL     OW 2486   1.384   0.070   0.482 -0.0927 -0.3305 -0.5896
  621SOL    HW1 2487   1.369   0.092   0.386  0.5834  2.4075 -0.1650
  621SOL    HW2 2488   1.302   0.093   0.534  0.4125  0.6753 -0.2071
  622SOL     OW 2489   1.237   2.686   0.532  0.0349  0.2683  0.0905
  622SOL    HW1 2490   1.260   2.778   0.563  2.0223 -0.8292  2.1824
  622SOL    HW2 2491   1.171   2.645   0.595  1.6561 -0.8373  1.1600
  623SOL     OW 2492   3.763   2.214   3.783 -0.6751  0.1693 -0.4686
  623SOL    HW1 2493   3.793   2.262   3.866  3.4689 -1.0669 -1.0177
  623SOL    HW2 2494   3.780   2.271   3.703 -1.3010 -0.0001 -0.7289
  624SOL     OW 2495   2.857   4.911   0.634  0.9046  0.6037 -0.0080
  624SOL    HW1 2496   2.872   4.986   0.698 -1.3871  0.3763  0.8812
  624SOL    HW2 2497   2.926   4.840   0.650  0.8129  0.8600  1.7393
  625SOL     OW 2498   2.504   2.409   0.802  0.7633 -0.8824  0.4330
  625SOL    HW1 2499   2.510   2.345   0.726 -0.8201  0.2263 -0.7234
  625SOL    HW2 2500   2.411   2.447   0.806  1.6302  1.3708  1.0058
  626SOL     OW 2501   2.062   0.752   3.925 -0.4840  0.2418  0.6001
  626SOL    HW1 2502   2.160   0.771   3.921 -0.1775 -1.3151  0.0774
  626SOL    HW2 2503   2.033   0.710   3.838 -1.5569  0.4712  0.8428
  627SOL     OW 2504   2.250   3.805   4.159  0.0875  0.0219 -0.5091
  627SOL    HW1 2505   2.221   3.735   4.094 -2.0811  1.0871 -0.7862
  627SOL    HW2 2506   2.273   3.889   4.109 -0.1104  0.3814 -0.0029
  628SOL     OW 2507   2.169   4.499   2.043 -0.8513  0.3533  0.1860
  628SOL    HW1 2508   2.155   4.560   1.965  0.8294 -0.5024 -0.8341
  628SOL    HW2 2509   2.155   4.404   2.014 -3.8225  0.1762  1.8426
  629SOL     OW 2510   2.558   3.486   3.049  0.4808 -0.1822  0.1558
  629SOL    HW1 2511   2.649   3.490   3.008 -1.0471 -0.7743 -3.7633
  629SOL    HW2 2512   2.517   3.397   3.031 -0.5173 -0.3692  2.8989
  630SOL     OW 2513   4.280   2.458   4.509  0.8617 -0.3297  0.0792
  630SOL    HW1 2514   4.330   2.432   4.426  2.6527 -0.8381  1.2726
  630SOL    HW2 2515   4.217   2.385   4.535 -1.9242  0.9690 -2.3527
  631SOL     OW 2516   2.731   0.487   3.724  0.5429 -0.2827 -0.0679
  631SOL    HW1 2517   2.778   0.414   3.774 -0.0072 -0.0860  0.7573
  631SOL    HW2 2518   2.792   0.565   3.713  0.6967 -0.3592  0.2270
  632SOL     OW 2519   3.690   1.976   0.564 -0.5265  0.7486 -0.0412
  632SOL    HW1 2520   3.705   2.060   0.511  2.7328  0.3407 -0.0208
  632SOL    HW2 2521   3.748   1.904   0.527 -3.3265 -1.6116 -0.1205
  633SOL     OW 2522   0.296   2.602   1.898 -0.4539  0.0876  0.5038
  633SOL    HW1 2523   0.250   2.673   1.845 -1.4840 -0.7023  0.3152
  633SOL    HW2 2524   0.395   2.616   1.893 -0.5718  0.5785 -0.8487
  634SOL     OW 2525   1.531   1.347   4.853 -0.2865 -0.5689  0.1589
  634SOL    HW1 2526   1.559   1.427   4.905 -1.7118  1.1218 -1.5245
  634SOL    HW2 2527   1.495   1.376   4.764 -0.2274 -3.1445 -0.7906
  635SOL     OW 2528   4.287   2.707   2.023  0.3538 -1.2267 -0.1025
  635SOL    HW1 2529   4.240   2.619   2.028 -0.8382 -0.5395  2.7085
  635SOL    HW2 2530   4.257   2.765   2.098  1.2756  1.5423 -1.7290
  636SOL     OW 2531   1.165   4.595   2.936  0.0938 -0.1378 -0.1165
  636SOL    HW1 2532   1.227   4.668   2.906  0.5737 -0.9208 -1.1115
  636SOL    HW2 2533   1.074   4.612   2.897 -0.1410  0.6098  0.7254
  637SOL     OW 2534   3.393   2.025   1.597  0.6303  0.4535 -0.6549
  637SOL    HW1 2535   3.483   1.993   1.624  1.0643  0.0854 -2.4747
  637SOL    HW2 2536   3.401   2.100   1.532 -0.4006  1.2021  0.0233
  638SOL     OW 2537   1.268   3.088   0.835 -0.3525 -0.5737  0.2149
  638SOL    HW1 2538   1.306   3.000   0.808 -0.8777 -0.0444 -2.5927
  638SOL    HW2 2539   1.342   3.149   0.863  0.6322 -0.5463 -2.1581
  639SOL     OW 2540   2.281   1.863   3.036  0.6952  0.5220 -0.7808
  639SOL    HW1 2541   2.246   1.881   2.944 -1.8624  1.0276  0.2075
  639SOL    HW2 2542   2.374   1.828   3.030  0.8623  1.2111 -3.5077
  640SOL     OW 2543   4.193   2.962   2.307  0.5258 -0.2365 -0.9763
  640SOL    HW1 2544   4.287   2.933   2.326  1.6205  1.6010 -3.0222
  640SOL    HW2 2545   4.130   2.911   2.365  2.8528 -0.5272  1.5115
  641SOL     OW 2546   0.172   0.573   1.370 -0.1164 -0.0678  0.7493
  641SOL    HW1 2547   0.200   0.661   1.410  4.1541 -2.0678  2.7999
  641SOL    HW2 2548   0.198   0.571   1.273  0.7841  0.5654  0.9647
  642SOL     OW 2549   1.843   1.662   0.651 -0.3766 -0.1244  0.7520
  642SOL    HW1 2550   1.746   1.646   0.671  0.3329 -2.6978  2.6504
  642SOL    HW2 2551   1.886   1.576   0.625  1.6237  0.7749  0.9196
  643SOL     OW 2552   4.322   0.256   4.123  0.5544  0.1737  0.2155
  643SOL    HW1 2553   4.226   0.244   4.099  0.5312 -0.7976  0.7586
  643SOL    HW2 2554   4.348   0.351   4.107 -0.8995  0.8158  1.4739
  644SOL     OW 2555   0.961   1.601   4.243  0.8958 -0.0739 -0.8457
  644SOL    HW1 2556   0.888   1.543   4.206  3.1161 -4.2962  0.8329
  644SOL    HW2 2557   0.921   1.668   4.306 -1.9377  1.3899 -3.8979
  645SOL     OW 2558   3.061   1.141   4.513  0.4975  0.1271 -0.3966
  645SOL    HW1 2559   3.095   1.105   4.426 -0.5807  0.5357 -1.0052
  645SOL    HW2 2560   2.993   1.078   4.551 -0.1318  0.6665 -0.6076
  646SOL     OW 2561   0.005   1.050   2.080  0.1115 -0.0766  0.0586
  646SOL    HW1 2562  -0.046   1.134   2.099 -2.4323 -0.9704 -2.0558
  646SOL    HW2 2563   0.026   1.003   2.165 -1.1800  1.1882  1.1233
  647SOL     OW 2564   4.891   4.325   1.435  0.1628  0.1453 -1.3394
  647SOL    HW1 2565   4.816   4.391   1.425 -0.1664  0.0832  0.4386
  647SOL    HW2 2566   4.868   4.242   1.384 -0.6218  0.4184 -1.4580
  648SOL     OW 2567   2.200   2.332   3.579  1.0165 -0.1161  0.0305
  648SOL    HW1 2568   2.280   2.278   3.554  1.7876  1.3644 -0.9022
  648SOL    HW2 2569   2.186   2.328   3.678  1.7077 -1.1074  0.0994
  649SOL     OW 2570   0.395   1.692   4.727  0.4066  0.2500 -0.0453
  649SOL    HW1 2571   0.341   1.622   4.682 -1.1960  1.2441  0.2704
  649SOL    HW2 2572   0.433   1.754   4.659 -2.0760  1.7997 -0.1228
  650SOL     OW 2573   0.293   3.916   0.071 -0.5789 -0.3249 -0.0873
  650SOL    HW1 2574   0.225   3.986   0.048 -1.7119 -1.0755  0.8684
  650SOL    HW2 2575   0.382   3.943   0.035 -0.9365  1.7308  0.4519
  651SOL     OW 2576   4.982   0.133   0.761  0.0080  0.1993  0.3273
  651SOL    HW1 2577   5.005   0.230   0.751  0.7861  0.0138  0.2257
  651SOL    HW2 2578   4.933   0.101   0.680 -0.7615  0.6419  0.6090
  652SOL     OW 2579   0.837   4.026   3.982  0.4052 -0.1438  0.2184
  652SOL    HW1 2580   0.889   4.076   3.912 -0.9267  0.9441 -0.0301
  652SOL    HW2 2581   0.755   4.077   4.006 -0.0201 -1.3106  1.3881
  653SOL     OW 2582   1.246   1.065   2.242  0.6757  0.5749  0.1625
  653SOL    HW1 2583   1.172   1.131   2.238  0.1805  0.0245  0.1717
  653SOL    HW2 2584   1.333   1.112   2.226  0.8157  2.0059  4.1033
  654SOL     OW 2585   1.654   0.211   0.775  1.5087  0.5291  0.0114
  654SOL    HW1 2586   1.710   0.256   0.845  0.2083  0.1679  1.3206
  654SOL    HW2 2587   1.558   0.239   0.785  1.2576  0.3397 -1.5355
  655SOL     OW 2588   4.615   1.364   0.672 -0.0032 -0.5389 -0.4040
  655SOL    HW1 2589   4.615   1.389   0.576 -0.5480  0.2186 -0.2223
  655SOL    HW2 2590   4.696   1.403   0.717  1.1620 -2.2985 -0.8714
  656SOL     OW 2591   3.017   3.198   1.714  0.3102  0.2976 -0.3259
  656SOL    HW1 2592   2.961   3.186   1.632 -0.8950 -0.1735  0.5410
  656SOL    HW2 2593   2.966   3.251   1.781 -0.9846 -3.6381  2.1659
  657SOL     OW 2594   1.978   3.237   3.142  0.0787  0.2707 -0.0237
  657SOL    HW1 2595   1.944   3.244   3.048  1.7707  0.5000 -0.6431
  657SOL    HW2 2596   1.924   3.297   3.201 -0.8723  0.2845 -0.8771
  658SOL     OW 2597   2.821   1.108   3.035 -0.2050  0.5969  0.1023
  658SOL    HW1 2598   2.864   1.179   2.980 -1.6268  0.5981 -1.0618
  658SOL    HW2 2599   2.891   1.060   3.088  0.9799  1.7475 -0.3681
  659SOL     OW 2600   0.110   3.423   1.786 -0.5267  0.6470 -0.4017
  659SOL    HW1 2601   0.207   3.448   1.777 -0.7024  2.0517  1.0891
  659SOL    HW2 2602   0.100   3.351   1.855 -0.5777  0.7285 -0.3243
  660SOL     OW 2603   2.218   2.657   3.203  0.0854 -0.2573  1.0291
  660SOL    HW1 2604   2.275   2.715   3.145  1.1608  0.1909  2.4798
  660SOL    HW2 2605   2.206   2.568   3.159  2.2028 -0.4882  0.8134
  661SOL     OW 2606   4.747   0.536   2.989 -1.0662  0.1529  0.2998
  661SOL    HW1 2607   4.733   0.472   2.913  1.1249 -2.4928  1.9742
  661SOL    HW2 2608   4.707   0.499   3.072  0.1084  1.0252  1.2958
  662SOL     OW 2609   3.367   3.219   3.812 -0.2469  0.1431  0.1204
  662SOL    HW1 2610   3.385   3.123   3.832 -0.1838  0.3890  1.3103
  662SOL    HW2 2611   3.282   3.247   3.855 -0.1184  0.6895  0.0270
  663SOL     OW 2612   0.429   0.681   4.971  0.1028 -1.0570  0.5540
  663SOL    HW1 2613   0.381   0.593   4.971  1.0592 -1.7310 -3.0194
  663SOL    HW2 2614   0.510   0.675   4.914 -1.2791  2.8341 -2.2379
  664SOL     OW 2615   0.963   3.580   4.396  0.4435 -0.5780  0.3678
  664SOL    HW1 2616   0.937   3.523   4.474 -0.6224  0.5360  0.8665
  664SOL    HW2 2617   0.889   3.581   4.329  0.0947  0.8649  0.7552
  665SOL     OW 2618   0.343   1.451   2.958 -0.7643 -0.6252  0.4304
  665SOL    HW1 2619   0.321   1.472   2.862 -0.7755 -3.1071 -0.1834
  665SOL    HW2 2620   0.266   1.402   2.999 -0.4870 -0.1633  1.5241
  666SOL     OW 2621   0.412   3.358   0.988  0.5097  0.1127  0.0822
  666SOL    HW1 2622   0.504   3.334   0.959 -0.7801 -1.0254 -3.7064
  666SOL    HW2 2623   0.363   3.275   1.015  0.4210  0.6539  1.6755
  667SOL     OW 2624   0.905   2.475   1.465  0.8218  0.4094  0.4853
  667SOL    HW1 2625   1.005   2.466   1.473  1.4176  5.1096  1.8207
  667SOL    HW2 2626   0.883   2.534   1.387 -1.1086 -1.5089 -0.5151
  668SOL     OW 2627   3.662   1.080   1.403 -0.6255 -0.6318 -0.3111
  668SOL    HW1 2628   3.720   1.113   1.328  0.0315 -0.1972  0.3771
  668SOL    HW2 2629   3.720   1.039   1.473 -1.1200  0.1208  0.5467
  669SOL     OW 2630   3.961   4.817   0.770  0.1168 -0.6413 -0.2579
  669SOL    HW1 2631   3.910   4.744   0.816 -0.3681 -0.7981 -1.0275
  669SOL    HW2 2632   3.954   4.806   0.671 -4.2181  3.1688 -0.7081
  670SOL     OW 2633   1.207   3.611   4.150 -0.3382  0.5352  0.1055
  670SOL    HW1 2634   1.142   3.624   4.075  1.2516  2.3270 -1.0767
  670SOL    HW2 2635   1.286   3.671   4.135  0.5812  0.0464  2.6197
  671SOL     OW 2636   1.711   4.674   1.366  0.4029  0.5129 -0.5580
  671SOL    HW1 2637   1.734   4.670   1.268  0.1413 -1.4782 -0.5916
  671SOL    HW2 2638   1.675   4.585   1.395  1.0119  0.8836  1.4962
  672SOL     OW 2639   2.666   4.867   4.552 -1.0948 -0.3865  1.0377
  672SOL    HW1 2640   2.725   4.903   4.480  1.6022 -1.2549  2.6721
  672SOL    HW2 2641   2.585   4.925   4.561  1.1542  3.0317  1.0097
  673SOL     OW 2642   2.381   1.239   3.076  0.2462  0.5836 -0.1480
  673SOL    HW1 2643   2.300   1.187   3.104 -0.0566  0.3142 -1.4753
  673SOL    HW2 2644   2.408   1.213   2.983  2.2013  0.2670  0.4584
  674SOL     OW 2645   3.676   1.893   4.515  0.9480  0.4429  0.7516
  674SOL    HW1 2646   3.589   1.869   4.559 -2.0983  4.9024 -2.0000
  674SOL    HW2 2647   3.691   1.832   4.437  0.9564 -1.0084  1.8266
  675SOL     OW 2648   3.733   3.552   2.133  0.3399 -0.2888  1.0098
  675SOL    HW1 2649   3.651   3.495   2.143 -0.0736  0.4218  1.7467
  675SOL    HW2 2650   3.774   3.535   2.043 -0.3335 -1.0153  0.8266
  676SOL     OW 2651   0.050   1.286   3.696 -0.6492 -0.7948 -0.0857
  676SOL    HW1 2652   0.054   1.186   3.700 -0.2355 -0.7489  2.8873
  676SOL    HW2 2653   0.123   1.324   3.753  0.7987  1.3165 -3.0740
  677SOL     OW 2654   0.272   4.698   0.662 -0.1750 -0.4286  0.1881
  677SOL    HW1 2655   0.362   4.741   0.672 -0.5268  0.5720 -0.7969
  677SOL    HW2 2656   0.262   4.664   0.568 -1.6377  1.4090 -0.3804
  678SOL     OW 2657   3.581   0.140   4.172  0.7722  0.1500 -0.9368
  678SOL    HW1 2658   3.544   0.197   4.099 -1.9293  0.9644  0.8900
  678SOL    HW2 2659   3.598   0.048   4.138 -3.4479 -0.4168 -2.0254
  679SOL     OW 2660   4.457   4.677   1.546 -0.3663 -0.3456 -0.3914
  679SOL    HW1 2661   4.393   4.684   1.622 -1.0760 -0.0118 -1.0057
  679SOL    HW2 2662   4.407   4.659   1.461  0.4539 -1.2825 -0.7012
  680SOL     OW 2663   2.242   4.445   1.024  0.2434 -0.1094  0.3965
  680SOL    HW1 2664   2.313   4.505   0.988  1.3559 -0.1857  2.3509
  680SOL    HW2 2665   2.228   4.465   1.121 -1.9388 -0.5764  0.2285
  681SOL     OW 2666   4.582   2.935   1.592 -0.4435 -0.2687  0.4346
  681SOL    HW1 2667   4.660   2.874   1.602 -1.7991 -2.0855  0.3763
  681SOL    HW2 2668   4.524   2.928   1.673 -0.2306  1.5921  0.7944
  682SOL     OW 2669   4.533   1.063   1.235 -0.3315 -0.5482  1.2650
  682SOL    HW1 2670   4.627   1.049   1.204  0.0440 -1.4922  2.7223
  682SOL    HW2 2671   4.477   1.095   1.158  1.5610  2.0120  0.8110
  683SOL     OW 2672   4.590   0.077   4.850  0.3560  0.1035  0.2789
  683SOL    HW1 2673   4.615   0.156   4.794  4.0903 -1.1014 -0.0173
  683SOL    HW2 2674   4.661   0.060   4.918  1.4188 -4.6342 -1.5963
  684SOL     OW 2675   0.060   2.971   4.313  0.1476  0.0767 -0.1245
  684SOL    HW1 2676   0.139   3.011   4.360 -1.0722  0.4699  1.6891
  684SOL    HW2 2677   0.018   3.041   4.255  0.6832  0.0773 -0.5218
  685SOL     OW 2678   2.817   1.035   4.313  0.1079 -0.6657  1.1030
  685SOL    HW1 2679   2.863   1.090   4.244 -3.9175  0.7830 -0.7204
  685SOL    HW2 2680   2.820   1.082   4.401 -0.6165  1.0211  0.2691
  686SOL     OW 2681   4.665   2.866   3.581  0.2833  0.6037  0.2073
  686SOL    HW1 2682   4.723   2.813   3.643  0.5088  1.6967  0.9619
  686SOL    HW2 2683   4.709   2.873   3.492  0.0285 -0.8546 -0.0547
  687SOL     OW 2684   1.176   0.480   4.995 -0.1939  0.0413 -0.2377
  687SOL    HW1 2685   1.102   0.463   4.930 -0.7977 -3.7758  1.1710
  687SOL    HW2 2686   1.138   0.522   5.078 -0.3561  0.1382 -0.3596
  688SOL     OW 2687   0.449   2.633   4.586  0.0229  0.3749  0.7303
  688SOL    HW1 2688   0.439   2.544   4.542 -1.3067  0.6963  0.3416
  688SOL    HW2 2689   0.506   2.692   4.528 -2.6850  1.2057 -1.3274
  689SOL     OW 2690   2.449   3.431   1.970  0.1602 -0.1895  0.1285
  689SOL    HW1 2691   2.475   3.463   2.062 -2.1403  1.0571  0.4340
  689SOL    HW2 2692   2.470   3.502   1.903  1.5103 -0.9564 -0.2884
  690SOL     OW 2693   0.715   4.434   0.398  0.1107 -0.6176  0.1414
  690SOL    HW1 2694   0.688   4.347   0.440 -1.3607 -0.9902 -1.4644
  690SOL    HW2 2695   0.760   4.416   0.311  2.2888  0.1813  1.0122
  691SOL     OW 2696   1.459   1.606   1.941  0.1895  0.1028  0.6768
  691SOL    HW1 2697   1.543   1.578   1.988 -0.1368  0.8916  1.7476
  691SOL    HW2 2698   1.379   1.576   1.993 -0.1776  1.6970  1.0930
  692SOL     OW 2699   4.210   4.021   0.701  0.0522 -0.0675  0.5109
  692SOL    HW1 2700   4.148   3.974   0.638 -1.0007  1.9435 -0.0459
  692SOL    HW2 2701   4.207   4.119   0.683  2.4253  0.2359  1.3744
  693SOL     OW 2702   0.581   3.671   1.391 -0.4167 -0.2330 -0.5679
  693SOL    HW1 2703   0.656   3.639   1.333  0.7365  2.1046 -0.4587
  693SOL    HW2 2704   0.498   3.618   1.370  1.0618 -2.4619 -1.1147
  694SOL     OW 2705   0.770   2.493   1.087 -0.5083  0.4036  0.3234
  694SOL    HW1 2706   0.681   2.523   1.120 -2.6071 -2.0771 -2.4961
  694SOL    HW2 2707   0.842   2.531   1.145 -3.2804  3.2451  2.2130
  695SOL     OW 2708   1.756   4.244   3.160 -0.1906  0.9617 -0.5403
  695SOL    HW1 2709   1.683   4.180   3.184 -1.2867  2.5964  0.7401
  695SOL    HW2 2710   1.737   4.283   3.070  0.8482 -0.9316 -1.6443
  696SOL     OW 2711   3.691   1.065   0.556 -0.1621  0.0999  0.0307
  696SOL    HW1 2712   3.760   0.993   0.548 -1.3263 -1.1003  0.5046
  696SOL    HW2 2713   3.606   1.036   0.512 -0.3292  1.6488 -0.7521
  697SOL     OW 2714   3.012   4.208   0.253  0.4008  0.0268 -0.7004
  697SOL    HW1 2715   3.059   4.258   0.181  3.2781 -1.0446  0.2855
  697SOL    HW2 2716   3.021   4.257   0.340 -2.3991  0.9395 -0.8273
  698SOL     OW 2717   1.269   1.275   0.315  0.3424 -0.5455 -0.1255
  698SOL    HW1 2718   1.252   1.213   0.239  2.8824 -3.2310  1.2871
  698SOL    HW2 2719   1.367   1.273   0.339 -0.0151  1.6756  1.9840
  699SOL     OW 2720   3.427   0.604   2.166 -0.0414 -0.5234 -0.3490
  699SOL    HW1 2721   3.353   0.649   2.116  2.3798 -0.3454 -4.1709
  699SOL    HW2 2722   3.413   0.505   2.164 -0.3837 -0.4708 -0.6342
  700SOL     OW 2723   2.266   4.157   1.622  0.3351  0.0078  0.5072
  700SOL    HW1 2724   2.283   4.127   1.529 -0.6206  0.5320  0.1478
  700SOL    HW2 2725   2.336   4.223   1.650  1.5073 -1.2689  0.7299
  701SOL     OW 2726   3.111   4.771   0.665  0.3666 -0.3513  0.0481
  701SOL    HW1 2727   3.145   4.767   0.571  1.2660  0.0676  0.3450
  701SOL    HW2 2728   3.150   4.696   0.719  0.4801 -0.1305  0.2785
  702SOL     OW 2729   1.102   3.364   0.617 -0.1975  0.0396  0.0279
  702SOL    HW1 2730   1.175   3.429   0.637  0.4526 -0.8376  0.6074
  702SOL    HW2 2731   1.080   3.367   0.519 -0.8320  1.7601  0.1881
  703SOL     OW 2732   4.902   1.966   4.495  0.3855 -0.5008 -0.3885
  703SOL    HW1 2733   4.898   2.014   4.582  0.1957  1.6709 -1.5321
  703SOL    HW2 2734   4.824   1.903   4.488  0.3304 -0.5967  0.9159
  704SOL     OW 2735   0.748   3.859   4.371  0.5011  0.7792  1.1208
  704SOL    HW1 2736   0.827   3.803   4.393  0.2339 -0.2094 -0.2973
  704SOL    HW2 2737   0.757   3.894   4.278 -0.9124  0.2582  0.7581
  705SOL     OW 2738   0.789   0.258   1.807  0.2880 -1.0685  0.2002
  705SOL    HW1 2739   0.716   0.233   1.871  0.7650 -2.1976  0.3194
  705SOL    HW2 2740   0.756   0.246   1.713 -0.7544  1.5504  0.1547
  706SOL     OW 2741   4.868   3.874   0.035  0.4766  0.0934 -0.8852
  706SOL    HW1 2742   4.877   3.904   0.130 -0.7543 -0.1638 -0.6652
  706SOL    HW2 2743   4.852   3.953  -0.024  2.6977  0.4328 -1.1333
  707SOL     OW 2744   3.683   0.658   2.617  0.0736 -0.1928  0.2923
  707SOL    HW1 2745   3.630   0.666   2.533 -1.3491 -5.1339  0.4227
  707SOL    HW2 2746   3.768   0.610   2.598 -0.7169 -2.2835  1.7001
  708SOL     OW 2747   2.836   0.250   4.055 -0.7425  0.2725  0.0968
  708SOL    HW1 2748   2.770   0.193   4.104  1.9987 -0.4661  3.2647
  708SOL    HW2 2749   2.816   0.346   4.072 -0.1042  0.0367  2.5189
  709SOL     OW 2750   3.695   3.306   0.072 -0.2054  0.0844  0.4472
  709SOL    HW1 2751   3.770   3.244   0.049 -1.2956 -1.3766  0.6812
  709SOL    HW2 2752   3.646   3.332  -0.012  3.6423  5.4743 -0.6536
  710SOL     OW 2753   4.024   1.162   4.213 -0.0692 -0.0240 -0.3862
  710SOL    HW1 2754   3.936   1.209   4.205  0.8198  1.9719  0.6778
  710SOL    HW2 2755   4.080   1.181   4.132 -0.1530 -0.1999 -0.4834
  711SOL     OW 2756   3.515   2.678   2.111 -0.0226 -0.3046 -0.1044
  711SOL    HW1 2757   3.434   2.680   2.169 -1.2930 -0.5647 -1.7893
  711SOL    HW2 2758   3.515   2.759   2.052 -0.2421 -1.3877 -1.6272
  712SOL     OW 2759   2.610   1.818   3.229  0.8119 -0.1462  0.1367
  712SOL    HW1 2760   2.651   1.844   3.141 -1.2912  0.1381 -0.8248
  712SOL    HW2 2761   2.560   1.732   3.219 -0.4858  0.5080  0.6834
  713SOL     OW 2762   1.969   1.398   3.966 -0.1510  0.9517 -0.6311
  713SOL    HW1 2763   1.928   1.332   4.029  2.5107 -0.6569 -0.4340
  713SOL    HW2 2764   1.988   1.354   3.878  1.3025  1.5357 -0.6395
  714SOL     OW 2765   1.435   4.260   0.258 -0.3654  0.6361  0.7634
  714SOL    HW1 2766   1.370   4.324   0.217 -1.3917  0.1791  1.6138
  714SOL    HW2 2767   1.515   4.250   0.199 -0.9187  1.4656 -0.1495
  715SOL     OW 2768   1.545   1.835   3.597 -0.0358 -0.2435  0.0171
  715SOL    HW1 2769   1.478   1.782   3.649 -1.8411 -1.0784 -2.8813
  715SOL    HW2 2770   1.605   1.773   3.547  0.6984  0.4931 -0.0368
  716SOL     OW 2771   3.339   2.581   1.750 -0.2098 -0.4618  0.2021
  716SOL    HW1 2772   3.328   2.511   1.680 -1.0586 -3.0825  2.7195
  716SOL    HW2 2773   3.387   2.541   1.829 -2.0244  1.3360  2.3444
  717SOL     OW 2774   2.160   1.908   2.776  0.1932 -0.5139  0.0933
  717SOL    HW1 2775   2.138   1.833   2.713  0.6802 -2.6359  2.2780
  717SOL    HW2 2776   2.089   1.978   2.771  0.1448 -0.6465 -2.6344
  718SOL     OW 2777   3.054   1.827   1.231 -0.6542  0.5941 -1.2967
  718SOL    HW1 2778   3.040   1.914   1.280  2.1645  0.8406 -0.7706
  718SOL    HW2 2779   2.965   1.789   1.205 -3.0020 -0.9340  6.2775
  719SOL     OW 2780   0.271   4.382   0.542 -0.0917  0.9181  0.1855
  719SOL    HW1 2781   0.328   4.460   0.565  3.1769 -0.1199 -3.3738
  719SOL    HW2 2782   0.191   4.413   0.490  1.8368  1.9851 -2.3430
  720SOL     OW 2783   2.020   1.416   4.915  0.4225 -0.0542 -0.2016
  720SOL    HW1 2784   1.959   1.346   4.877  2.4638 -1.3319 -1.3321
  720SOL    HW2 2785   2.094   1.434   4.851  2.0208  0.3940  1.6628
  721SOL     OW 2786   0.253   1.059   0.685  0.4675 -0.2439  0.2744
  721SOL    HW1 2787   0.242   0.971   0.639  0.8098  1.1321 -2.6614
  721SOL    HW2 2788   0.169   1.080   0.735 -0.2081 -1.5590 -0.2393
  722SOL     OW 2789   4.925   2.826   4.511 -0.2954 -0.1754 -0.7754
  722SOL    HW1 2790   4.962   2.863   4.426 -1.2211 -0.8808 -1.5170
  722SOL    HW2 2791   4.959   2.879   4.588  0.0231  0.9145 -1.6336
  723SOL     OW 2792   0.688   3.928   1.250 -0.7597 -0.1027  0.5416
  723SOL    HW1 2793   0.786   3.929   1.234 -0.5611  5.8982 -0.0225
  723SOL    HW2 2794   0.665   3.854   1.313  4.1905 -1.1597  1.4910
  724SOL     OW 2795   0.486   3.964   4.744  0.2255  0.1645 -0.7486
  724SOL    HW1 2796   0.430   3.885   4.723  1.1987 -1.1715  1.2939
  724SOL    HW2 2797   0.581   3.935   4.757  0.6043  1.6516  0.0783
  725SOL     OW 2798   0.790   0.891   1.852  0.4588  0.0716 -0.3036
  725SOL    HW1 2799   0.735   0.935   1.782 -0.9732  1.4109  1.5470
  725SOL    HW2 2800   0.876   0.940   1.863  1.9384 -1.7283 -2.8575
  726SOL     OW 2801   3.831   0.159   2.683  0.8457  0.6100 -0.1751
  726SOL    HW1 2802   3.866   0.121   2.768  2.8040 -1.0148 -1.6097
  726SOL    HW2 2803   3.797   0.085   2.625  0.2207  1.5970 -1.1050
  727SOL     OW 2804   0.230   2.234   4.298  0.2403 -0.2374  0.7523
  727SOL    HW1 2805   0.250   2.142   4.332  0.3660  0.4588  2.7168
  727SOL    HW2 2806   0.139   2.262   4.330  0.0414  0.1911 -0.1559
  728SOL     OW 2807   1.550   2.699   3.957 -0.6402 -0.5518  0.8489
  728SOL    HW1 2808   1.472   2.724   4.015 -0.7176 -0.7667  0.8392
  728SOL    HW2 2809   1.572   2.775   3.896 -0.4854 -0.2855  1.2378
  729SOL     OW 2810   0.352   0.346   0.947 -0.0145 -0.0376  0.0853
  729SOL    HW1 2811   0.396   0.318   0.861 -0.0003 -0.2925  0.1726
  729SOL    HW2 2812   0.341   0.265   1.005 -1.2726 -0.1091 -0.2317
  730SOL     OW 2813   1.709   0.326   0.235  0.5598 -0.0452 -0.9234
  730SOL    HW1 2814   1.629   0.385   0.242  1.2742  1.0369 -1.6942
  730SOL    HW2 2815   1.681   0.238   0.196 -0.6626 -0.5858  1.0040
  731SOL     OW 2816   0.202   0.323   2.766 -0.3566  0.3892  0.3451
  731SOL    HW1 2817   0.252   0.356   2.846 -0.9625  3.1588 -0.3146
  731SOL    HW2 2818   0.104   0.317   2.787 -0.4549  0.6257 -0.0283
  732SOL     OW 2819   3.986   0.011   4.619  0.0288 -0.3760 -0.2106
  732SOL    HW1 2820   3.976  -0.065   4.555 -2.3290 -0.1778 -0.1513
  732SOL    HW2 2821   3.904   0.068   4.618  0.0776 -0.0894  2.6366
  733SOL     OW 2822   3.677   3.503   0.250  0.0577 -0.4097 -0.4827
  733SOL    HW1 2823   3.597   3.555   0.222 -0.0302 -0.9552 -1.2661
  733SOL    HW2 2824   3.699   3.435   0.181 -0.0774 -1.7026  0.7047
  734SOL     OW 2825   2.626   0.599   1.178 -0.0783  0.2151  0.0128
  734SOL    HW1 2826   2.700   0.533   1.192  1.9710  2.4476  0.3639
  734SOL    HW2 2827   2.564   0.595   1.257  0.5627 -0.5833  0.5025
  735SOL     OW 2828   1.146   4.245   2.552 -0.7020  0.1108  0.4108
  735SOL    HW1 2829   1.134   4.147   2.565  1.6183 -0.2254  0.3648
  735SOL    HW2 2830   1.208   4.261   2.475 -2.4371  1.6932 -0.7641
  736SOL     OW 2831   1.693   3.922   3.205 -0.2535 -1.0113 -0.3362
  736SOL    HW1 2832   1.665   3.898   3.113 -0.6407 -0.8072 -0.2719
  736SOL    HW2 2833   1.737   3.843   3.248 -1.8898 -1.7627  0.0182
  737SOL     OW 2834   3.207   3.935   0.356  0.0497 -0.4379  0.6549
  737SOL    HW1 2835   3.242   4.028   0.344  0.5976 -0.8423 -1.3265
  737SOL    HW2 2836   3.109   3.934   0.337 -0.0706 -0.1867  1.2282
  738SOL     OW 2837   1.260   3.203   2.237 -0.0224  0.1796  0.5350
  738SOL    HW1 2838   1.185   3.258   2.273 -1.1190 -1.9141  1.6727
  738SOL    HW2 2839   1.299   3.147   2.311 -1.4861 -3.3256 -1.1054
  739SOL     OW 2840   3.200   0.819   0.280 -0.8492 -0.5095  1.1215
  739SOL    HW1 2841   3.106   0.847   0.261 -2.0023 -1.1171  5.0332
  739SOL    HW2 2842   3.203   0.722   0.301  0.6460 -0.4869  1.1212
  740SOL     OW 2843   1.382   2.693   2.152 -0.2001 -0.4281  0.6157
  740SOL    HW1 2844   1.432   2.741   2.224  0.9945  1.1332 -1.1393
  740SOL    HW2 2845   1.438   2.617   2.118  0.5955  0.6725 -0.6328
  741SOL     OW 2846   1.054   2.652   0.286 -0.3397  0.1798  0.4323
  741SOL    HW1 2847   0.955   2.639   0.293 -0.8848  3.6722  1.1944
  741SOL    HW2 2848   1.095   2.649   0.378 -0.0106  0.4475  0.2965
  742SOL     OW 2849   4.836   1.534   1.829  0.1320  0.8961 -0.6465
  742SOL    HW1 2850   4.903   1.472   1.869 -1.1892 -0.1260  0.0267
  742SOL    HW2 2851   4.750   1.486   1.815 -0.8126  2.4815 -0.4660
  743SOL     OW 2852   1.541   1.601   0.651 -0.4380  0.5341 -0.0620
  743SOL    HW1 2853   1.596   1.523   0.623  1.1365  0.4465  2.8692
  743SOL    HW2 2854   1.491   1.579   0.735 -0.1738  2.5456  0.6825
  744SOL     OW 2855   3.154   2.095   1.447 -0.0979  0.2827 -0.1093
  744SOL    HW1 2856   3.199   2.034   1.512 -0.3598  0.4735  0.2490
  744SOL    HW2 2857   3.071   2.132   1.487  0.2522  1.1779 -0.1748
  745SOL     OW 2858   2.248   3.003   2.429  0.3671  0.3790 -0.0951
  745SOL    HW1 2859   2.220   3.099   2.423 -0.3972  0.2356  0.8181
  745SOL    HW2 2860   2.250   2.963   2.338  2.2006  1.6473 -0.6745
  746SOL     OW 2861   4.760   1.948   0.186  0.2636 -0.0818  0.2967
  746SOL    HW1 2862   4.752   2.044   0.160 -2.5414 -0.5394 -0.8783
  746SOL    HW2 2863   4.686   1.924   0.248  1.3384 -1.3618  1.1568
  747SOL     OW 2864   1.829   1.770   2.275  0.9400  0.2352  0.0711
  747SOL    HW1 2865   1.909   1.711   2.268 -0.0507 -1.0785 -0.6423
  747SOL    HW2 2866   1.758   1.724   2.329  0.9900  1.7884  1.5452
  748SOL     OW 2867   3.101   2.541   0.860  0.3663 -0.7146 -0.0649
  748SOL    HW1 2868   3.139   2.563   0.950 -0.0924  0.3424 -0.1164
  748SOL    HW2 2869   3.105   2.622   0.802 -0.3219 -1.0969 -0.6505
  749SOL     OW 2870   3.926   2.731   0.826 -0.5132  0.5444  0.4483
  749SOL    HW1 2871   3.933   2.819   0.779 -0.3498  0.5825  0.5438
  749SOL    HW2 2872   3.871   2.669   0.771  2.4001 -0.5439 -1.5265
  750SOL     OW 2873   1.889   4.532   4.032 -0.3775 -0.5992 -0.2872
  750SOL    HW1 2874   1.881   4.435   4.055 -2.7221  0.3800  4.3507
  750SOL    HW2 2875   1.974   4.569   4.071  0.2201 -0.6249 -1.5272
  751SOL     OW 2876   4.621   4.446   3.595  0.9920 -0.4002  0.0514
  751SOL    HW1 2877   4.615   4.392   3.512  2.0403 -0.0472 -0.2606
  751SOL    HW2 2878   4.667   4.393   3.667 -2.6040 -1.9251  1.4689
  752SOL     OW 2879   0.751   3.923   0.607  0.4872  0.1286  0.3370
  752SOL    HW1 2880   0.684   3.923   0.681 -1.6918  0.9255 -1.4794
  752SOL    HW2 2881   0.748   3.835   0.559 -1.8763  1.2264 -1.7926
  753SOL     OW 2882   0.604   4.979   1.029  0.2448  0.1255 -0.5788
  753SOL    HW1 2883   0.552   5.057   0.994  0.8881  0.9940  0.3345
  753SOL    HW2 2884   0.701   5.004   1.036  0.8281 -1.4272 -2.1792
  754SOL     OW 2885   0.492   0.205   0.723 -0.7036 -0.4250  0.2272
  754SOL    HW1 2886   0.403   0.185   0.683 -0.4290 -2.2664  0.4732
  754SOL    HW2 2887   0.564   0.158   0.671 -0.1908 -1.5860  1.9123
  755SOL     OW 2888   4.051   4.049   2.948 -0.0560 -0.2658 -0.1526
  755SOL    HW1 2889   4.035   4.049   2.850  0.8818 -0.0229 -0.3126
  755SOL    HW2 2890   4.023   3.961   2.987  0.7678 -0.8505 -0.8496
  756SOL     OW 2891   1.098   1.110   1.357  0.0116  0.3486 -0.1669
  756SOL    HW1 2892   1.104   1.210   1.365  1.5867  0.2868 -0.3005
  756SOL    HW2 2893   1.002   1.083   1.356 -0.4393  1.8072  0.5251
  757SOL     OW 2894   4.233   2.420   0.742  0.6971 -0.0312 -0.0692
  757SOL    HW1 2895   4.185   2.341   0.781 -1.7875  0.3070 -2.1167
  757SOL    HW2 2896   4.263   2.481   0.816  0.1689 -1.5272  1.4401
  758SOL     OW 2897   1.600   2.512   2.124 -0.1646 -0.9701 -0.4161
  758SOL    HW1 2898   1.590   2.413   2.114 -0.3445 -1.1233  1.0911
  758SOL    HW2 2899   1.643   2.532   2.212  2.4035  0.1761 -1.8185
  759SOL     OW 2900   4.367   4.420   4.812 -0.7963  0.0180 -0.1147
  759SOL    HW1 2901   4.352   4.508   4.857  2.4020 -0.2525  1.7781
  759SOL    HW2 2902   4.303   4.353   4.848 -2.4768  1.2412 -0.7090
  760SOL     OW 2903   1.352   1.669   4.442 -0.1348  0.2959 -0.3017
  760SOL    HW1 2904   1.386   1.674   4.535 -0.2102 -3.4102  0.0878
  760SOL    HW2 2905   1.264   1.717   4.435 -0.6256 -0.2099  1.8054
  761SOL     OW 2906   0.902   2.430   1.729  0.4106  0.7689 -0.6446
  761SOL    HW1 2907   0.807   2.397   1.733  1.3216 -2.3335 -1.5437
  761SOL    HW2 2908   0.925   2.453   1.634  0.6508  1.1663 -0.4890
  762SOL     OW 2909   4.683   2.574   3.925 -0.3960  0.3359  0.3729
  762SOL    HW1 2910   4.721   2.572   3.832  0.1710  0.3868  0.6046
  762SOL    HW2 2911   4.589   2.609   3.921  0.3639  2.5051  0.0565
  763SOL     OW 2912   3.665   4.652   4.516 -0.5491 -0.5426  0.6906
  763SOL    HW1 2913   3.705   4.729   4.568 -0.7494 -1.0383  1.6058
  763SOL    HW2 2914   3.571   4.674   4.491 -0.5897 -0.4648  0.9066
  764SOL     OW 2915   0.670   2.301   4.961 -0.2632  0.6933  0.5659
  764SOL    HW1 2916   0.636   2.276   5.051  0.1459  0.1168  0.5675
  764SOL    HW2 2917   0.608   2.265   4.891  0.1711 -0.1055  0.5784
  765SOL     OW 2918   4.472   4.426   0.902  0.1975  0.4275  0.1538
  765SOL    HW1 2919   4.412   4.356   0.940 -0.3278  1.3991  1.1857
  765SOL    HW2 2920   4.563   4.417   0.944 -0.0734  0.8057  0.8391
  766SOL     OW 2921   0.339   0.723   0.846  0.4668  0.0453 -0.4266
  766SOL    HW1 2922   0.407   0.795   0.834  2.6492 -1.3919  2.1832
  766SOL    HW2 2923   0.382   0.634   0.828 -1.2206 -0.8360 -0.3047
  767SOL     OW 2924   0.389   0.124   0.051  0.4700 -0.3350 -0.1308
  767SOL    HW1 2925   0.427   0.085   0.135 -0.3731 -0.5300  0.1650
  767SOL    HW2 2926   0.421   0.070  -0.027  2.4436  0.7077 -0.1066
  768SOL     OW 2927   0.438   3.195   2.479  0.0562  0.1102 -0.5675
  768SOL    HW1 2928   0.447   3.263   2.551  1.2786  0.6269 -1.1755
  768SOL    HW2 2929   0.478   3.230   2.394 -1.7134 -0.3232 -1.6330
  769SOL     OW 2930   0.598   0.850   1.446  0.4528 -0.4733  0.6140
  769SOL    HW1 2931   0.527   0.780   1.441  0.2249 -0.3439  1.7109
  769SOL    HW2 2932   0.560   0.938   1.418  1.3774 -1.1302 -3.3129
  770SOL     OW 2933   4.375   3.436   0.343  0.6786 -1.0897  0.1292
  770SOL    HW1 2934   4.465   3.466   0.311  1.3241 -1.6279  1.3407
  770SOL    HW2 2935   4.367   3.337   0.330  0.8472 -1.2758  1.2915
  771SOL     OW 2936   1.371   3.464   1.260 -0.8242  0.2253 -0.1196
  771SOL    HW1 2937   1.373   3.484   1.162 -3.1655  1.0566 -0.0315
  771SOL    HW2 2938   1.404   3.543   1.311  0.3957 -0.2078 -0.1863
  772SOL     OW 2939   2.575   2.107   4.612  0.3071 -0.1497 -0.2808
  772SOL    HW1 2940   2.568   2.053   4.696 -4.0723  1.1244  0.4145
  772SOL    HW2 2941   2.541   2.052   4.535 -3.9317  1.1620  0.3908
  773SOL     OW 2942   3.070   3.361   4.211 -0.1507 -0.3012 -0.2499
  773SOL    HW1 2943   2.976   3.383   4.186 -0.0967 -2.3171 -2.5632
  773SOL    HW2 2944   3.071   3.315   4.300 -0.9011  2.7144  1.4569
  774SOL     OW 2945   2.727   3.380   4.006 -0.5394  0.4479  0.6729
  774SOL    HW1 2946   2.775   3.309   3.955  0.1248  2.2274 -1.3225
  774SOL    HW2 2947   2.642   3.404   3.959 -0.5665  1.2232  1.0944
  775SOL     OW 2948   4.168   1.974   4.064 -0.2436 -0.2025 -0.6346
  775SOL    HW1 2949   4.100   1.902   4.080  2.3234 -2.3958  1.1431
  775SOL    HW2 2950   4.197   2.014   4.151  0.6964  0.7580 -1.3553
  776SOL     OW 2951   3.629   2.420   2.937 -0.9649  0.2912  0.1002
  776SOL    HW1 2952   3.619   2.335   2.989 -0.5760  1.1651  1.6373
  776SOL    HW2 2953   3.633   2.398   2.839  2.5117 -1.8365  0.5301
  777SOL     OW 2954   3.073   1.983   3.496 -0.1602  0.0599  0.0529
  777SOL    HW1 2955   3.010   1.931   3.553 -0.9392  0.4537 -0.4321
  777SOL    HW2 2956   3.026   2.062   3.457  0.4401 -0.0182 -0.8812
  778SOL     OW 2957   4.172   3.926   1.954 -0.4853 -0.0357  0.1686
  778SOL    HW1 2958   4.244   3.857   1.943 -2.3923 -1.6995 -4.0399
  778SOL    HW2 2959   4.099   3.889   2.011  0.3566  0.3079  1.5274
  779SOL     OW 2960   3.007   2.490   1.576 -0.5083  0.2382 -0.9625
  779SOL    HW1 2961   3.094   2.537   1.589  1.1045 -2.3717 -1.6607
  779SOL    HW2 2962   2.932   2.556   1.585  1.0865  1.8455  4.7030
  780SOL     OW 2963   4.428   0.862   0.570 -0.6851  0.1955 -0.2700
  780SOL    HW1 2964   4.449   0.767   0.593  1.5082  0.6084 -0.3961
  780SOL    HW2 2965   4.359   0.897   0.634  0.2391 -0.7607  1.3108
  781SOL     OW 2966   0.419   3.559   4.264 -0.1800  0.1883 -0.8988
  781SOL    HW1 2967   0.456   3.577   4.173  1.7135  0.0950 -0.1955
  781SOL    HW2 2968   0.433   3.640   4.322  3.0470 -1.2722  0.6143
  782SOL     OW 2969   0.173   3.900   1.466 -0.7912 -0.2181  0.3444
  782SOL    HW1 2970   0.114   3.824   1.438 -0.5071 -1.3747  2.6187
  782SOL    HW2 2971   0.149   3.982   1.414 -4.0037 -0.7864  0.7034
  783SOL     OW 2972   1.393   3.016   1.408 -0.3230  0.6591  0.3230
  783SOL    HW1 2973   1.332   2.937   1.409  1.9020 -1.1980 -0.4604
  783SOL    HW2 2974   1.371   3.076   1.485 -2.3660 -0.4773  0.7057
  784SOL     OW 2975   4.900   1.967   1.230  0.5065 -0.9024  0.2411
  784SOL    HW1 2976   4.993   1.991   1.203  0.6207 -0.3646  1.0774
  784SOL    HW2 2977   4.885   1.869   1.214  1.9607 -1.4874  2.1481
  785SOL     OW 2978   4.109   2.138   0.330 -0.0917  0.4260 -0.4480
  785SOL    HW1 2979   4.078   2.049   0.296 -1.9427  0.3518  1.2536
  785SOL    HW2 2980   4.196   2.127   0.378 -1.0054 -0.8331  1.0487
  786SOL     OW 2981   4.655   2.116   1.200 -0.0032 -0.1092 -0.1799
  786SOL    HW1 2982   4.583   2.054   1.230 -0.5342  0.4189 -0.3501
  786SOL    HW2 2983   4.743   2.067   1.200 -0.2908 -0.6448  0.4007
  787SOL     OW 2984   1.220   2.489   1.678  0.1142  0.7940 -0.4821
  787SOL    HW1 2985   1.130   2.477   1.720  0.9448  2.1599  1.9182
  787SOL    HW2 2986   1.236   2.587   1.663  0.8307  0.4872 -1.8165
  788SOL     OW 2987   0.239   1.230   2.095  0.3411  0.2798  0.2728
  788SOL    HW1 2988   0.208   1.221   2.190  2.4498 -0.9467  0.9038
  788SOL    HW2 2989   0.298   1.153   2.071  4.1008  3.0540 -0.2889
  789SOL     OW 2990   0.730   3.462   4.255 -0.8025  0.2354  0.3123
  789SOL    HW1 2991   0.646   3.412   4.275 -0.9179 -1.5660 -3.7807
  789SOL    HW2 2992   0.708   3.550   4.215 -0.7334  0.0592 -0.1140
  790SOL     OW 2993   3.666   1.675   3.402  0.3424 -0.3339  0.1079
  790SOL    HW1 2994   3.756   1.656   3.442  0.3382 -0.3742  0.0976
  790SOL    HW2 2995   3.644   1.772   3.415  2.2724  0.7741 -3.6261
  791SOL     OW 2996   2.294   4.025   0.673 -0.2894  0.2865 -0.0427
  791SOL    HW1 2997   2.299   4.115   0.631  1.4558  0.1249 -0.2583
  791SOL    HW2 2998   2.358   4.021   0.750 -0.8623 -0.5511  0.4046
  792SOL     OW 2999   4.719   0.917   2.549 -0.1790 -0.9440  0.2903
  792SOL    HW1 3000   4.690   0.825   2.575  0.8634 -1.5664 -0.6503
  792SOL    HW2 3001   4.711   0.929   2.450 -1.1074  0.2871  0.4888
  793SOL     OW 3002   0.207   0.084   4.461 -0.2083  0.6206  0.0113
  793SOL    HW1 3003   0.291   0.076   4.514 -0.9138 -1.4559  0.9213
  793SOL    HW2 3004   0.142   0.141   4.512 -1.7693 -3.2453  2.8414
  794SOL     OW 3005   1.530   2.427   4.626 -0.9789  0.4658 -1.3516
  794SOL    HW1 3006   1.613   2.372   4.631 -0.4259  1.1021 -3.0167
  794SOL    HW2 3007   1.470   2.404   4.703  0.4135 -0.5065 -0.5221
  795SOL     OW 3008   3.814   3.023   2.185  1.1266  0.0850  0.1435
  795SOL    HW1 3009   3.908   3.039   2.158  1.3616 -1.0225  0.2630
  795SOL    HW2 3010   3.804   3.039   2.284  1.7095 -1.7986  0.5619
  796SOL     OW 3011   4.699   1.733   2.106  0.2796 -0.3980  0.1770
  796SOL    HW1 3012   4.791   1.696   2.122 -1.0839 -2.8303  3.9082
  796SOL    HW2 3013   4.637   1.658   2.082 -1.0009  1.0076 -1.0507
  797SOL     OW 3014   4.004   4.356   4.116  0.2355 -0.7288  0.0949
  797SOL    HW1 3015   4.051   4.407   4.043  0.1321  0.5528  0.8991
  797SOL    HW2 3016   3.943   4.418   4.166 -2.8198 -2.4225 -1.2560
  798SOL     OW 3017   3.363   3.285   4.392  0.5661  0.1893 -0.0280
  798SOL    HW1 3018   3.306   3.350   4.340 -1.5619 -1.2912  0.2991
  798SOL    HW2 3019   3.308   3.205   4.416  2.0064 -0.0660  2.8723
  799SOL     OW 3020   4.900   2.540   1.208  0.2309 -0.2894 -0.5400
  799SOL    HW1 3021   4.893   2.635   1.174  0.1559  0.0020  0.2826
  799SOL    HW2 3022   4.987   2.502   1.180 -0.5873 -0.7165 -2.7139
  800SOL     OW 3023   2.637   2.025   0.194  0.0259  0.7192 -0.1892
  800SOL    HW1 3024   2.665   1.997   0.286  2.1530  0.3207 -0.9065
  800SOL    HW2 3025   2.603   2.119   0.197  0.0003  0.6854  1.0052
  801SOL     OW 3026   2.886   2.497   4.007 -0.4388 -0.3699 -0.1703
  801SOL    HW1 3027   2.924   2.565   3.945 -2.4674  1.0539  0.0567
  801SOL    HW2 3028   2.789   2.482   3.986 -1.2407  0.2391  2.6594
  802SOL     OW 3029   1.505   3.403   4.179 -0.1449  0.9600  0.1223
  802SOL    HW1 3030   1.506   3.432   4.084 -2.4445 -0.4764 -0.4198
  802SOL    HW2 3031   1.466   3.476   4.236 -2.9461  0.2566 -0.7550
  803SOL     OW 3032   2.047   4.315   2.209  0.4687 -0.1448  0.7331
  803SOL    HW1 3033   2.106   4.304   2.289  1.9306  2.7311  0.1934
  803SOL    HW2 3034   2.055   4.408   2.175 -3.6594  0.0859 -0.0792
  804SOL     OW 3035   0.924   1.831   1.876  0.0559 -0.2886  0.1216
  804SOL    HW1 3036   0.872   1.755   1.837  0.8550  0.0231 -1.6409
  804SOL    HW2 3037   0.862   1.909   1.892 -0.2302 -0.2719 -0.9709
  805SOL     OW 3038   0.812   2.794   3.860  0.1716  0.9741 -0.4731
  805SOL    HW1 3039   0.792   2.730   3.785 -1.8687  1.4555 -0.3843
  805SOL    HW2 3040   0.902   2.773   3.897 -0.0966 -1.3593 -0.9492
  806SOL     OW 3041   2.086   3.254   4.706 -0.1628  0.7897  0.0342
  806SOL    HW1 3042   2.016   3.249   4.635  0.8126  0.8565 -0.9546
  806SOL    HW2 3043   2.161   3.192   4.684  0.2361  0.9410  0.9151
  807SOL     OW 3044   0.309   3.574   2.156  0.0151 -0.1882 -0.5219
  807SOL    HW1 3045   0.336   3.541   2.247  0.4984 -1.7493 -1.1988
  807SOL    HW2 3046   0.362   3.526   2.086  0.3165  1.6437 -1.6290
  808SOL     OW 3047   4.677   2.856   2.671  0.2358 -0.4421 -0.3469
  808SOL    HW1 3048   4.596   2.884   2.620  0.8934 -2.2919 -2.6085
  808SOL    HW2 3049   4.749   2.925   2.659 -0.7629  0.9691  1.2830
  809SOL     OW 3050   2.116   4.670   4.177  0.3417 -0.4758 -0.2745
  809SOL    HW1 3051   2.191   4.643   4.238 -0.7038  0.4920  1.5261
  809SOL    HW2 3052   2.032   4.682   4.230 -1.0964 -1.4028 -2.2227
  810SOL     OW 3053   1.412   1.200   3.679 -1.0705 -0.3485 -0.2378
  810SOL    HW1 3054   1.503   1.194   3.638  0.3553  0.9339  2.4797
  810SOL    HW2 3055   1.369   1.286   3.651 -0.7180 -0.1596 -0.2127
  811SOL     OW 3056   0.294   4.147   2.211  0.1406 -0.0703 -0.4247
  811SOL    HW1 3057   0.380   4.113   2.174  0.6644  0.5525  0.1929
  811SOL    HW2 3058   0.263   4.085   2.284  1.1833  0.8168  0.8185
  812SOL     OW 3059   2.136   2.924   2.921  0.9781 -0.0403 -0.4842
  812SOL    HW1 3060   2.113   2.944   3.016  0.8246  2.1515 -0.9149
  812SOL    HW2 3061   2.219   2.868   2.917  2.0509  1.3456  0.9584
  813SOL     OW 3062   3.954   2.872   4.401 -0.4042 -0.3514 -0.5024
  813SOL    HW1 3063   3.919   2.778   4.393  1.3920 -1.2900  1.5527
  813SOL    HW2 3064   3.881   2.932   4.433 -1.2898 -1.2883 -0.7005
  814SOL     OW 3065   4.238   2.520   2.803  0.1740 -0.3445  0.2439
  814SOL    HW1 3066   4.269   2.469   2.883  0.5852  1.0104  0.9807
  814SOL    HW2 3067   4.170   2.587   2.831 -0.7197 -0.7954 -0.7877
  815SOL     OW 3068   1.697   2.807   0.920  0.6039  0.2915 -0.6209
  815SOL    HW1 3069   1.760   2.732   0.902  1.6525  1.0268 -0.1051
  815SOL    HW2 3070   1.730   2.862   0.997 -1.4681 -0.1944  0.7053
  816SOL     OW 3071   3.805   1.669   3.695 -0.4677  0.4108 -0.4170
  816SOL    HW1 3072   3.746   1.588   3.702  1.8806 -1.3484  0.7554
  816SOL    HW2 3073   3.773   1.739   3.759 -1.9277 -0.0103 -0.6493
  817SOL     OW 3074   0.930   4.282   0.929 -0.2372 -0.0296 -0.3014
  817SOL    HW1 3075   1.003   4.216   0.912 -0.8981 -0.4063 -1.9468
  817SOL    HW2 3076   0.877   4.254   1.009  0.2494 -0.8246 -0.2435
  818SOL     OW 3077   4.193   3.931   3.580 -0.3948 -0.5715 -0.7930
  818SOL    HW1 3078   4.149   3.861   3.524 -0.1687  0.3002 -2.0995
  818SOL    HW2 3079   4.155   3.928   3.672  1.2078 -3.9436 -0.0581
  819SOL     OW 3080   4.638   3.936   4.443 -0.2244  1.0640 -0.3656
  819SOL    HW1 3081   4.649   3.846   4.402  0.1360  1.0251 -0.1924
  819SOL    HW2 3082   4.695   3.942   4.525 -2.8434  0.2112  1.6734
  820SOL     OW 3083   0.606   3.383   3.904  0.3288 -0.1952  0.3608
  820SOL    HW1 3084   0.567   3.368   3.813  1.1145 -2.6122  0.3518
  820SOL    HW2 3085   0.586   3.305   3.963  0.0391  1.2126  2.2410
  821SOL     OW 3086   2.640   2.359   4.457  0.3203 -1.0866 -0.4485
  821SOL    HW1 3087   2.675   2.282   4.511  1.1844 -0.7664 -0.5310
  821SOL    HW2 3088   2.597   2.426   4.519  2.2755 -0.1960  0.0300
  822SOL     OW 3089   2.252   3.747   1.540 -0.4984  0.4580 -0.9973
  822SOL    HW1 3090   2.199   3.829   1.520 -2.0065 -0.3517 -0.4576
  822SOL    HW2 3091   2.315   3.730   1.464 -0.0119  2.1987 -1.0308
  823SOL     OW 3092   1.308   1.536   0.117  0.1094  0.0463  0.0632
  823SOL    HW1 3093   1.258   1.548   0.031  0.2372 -0.0572 -0.0278
  823SOL    HW2 3094   1.402   1.570   0.106  0.1146  0.0683  0.1733
  824SOL     OW 3095   0.561   1.616   1.698 -0.5346  0.5005  0.1628
  824SOL    HW1 3096   0.629   1.590   1.767  0.6643  2.1119 -0.3586
  824SOL    HW2 3097   0.504   1.536   1.676 -0.5337 -0.2301  2.4967
  825SOL     OW 3098   1.453   0.032   2.575  0.0879 -0.0988 -0.0605
  825SOL    HW1 3099   1.424  -0.064   2.573  2.9212 -1.0637  1.0675
  825SOL    HW2 3100   1.413   0.080   2.496 -1.1572 -2.2615 -0.8272
  826SOL     OW 3101   0.884   2.608   4.417 -0.1370  0.1664 -0.0660
  826SOL    HW1 3102   0.857   2.524   4.370 -2.9618  1.4425 -0.9518
  826SOL    HW2 3103   0.943   2.663   4.357  1.8616 -1.1658  0.5820
  827SOL     OW 3104   2.729   4.759   2.162 -0.7416 -0.2658 -0.3276
  827SOL    HW1 3105   2.762   4.712   2.244  2.3592  2.1716  0.0215
  827SOL    HW2 3106   2.729   4.858   2.179 -0.8905  0.2456 -2.9820
  828SOL     OW 3107   1.055   2.632   2.409  0.2938 -1.2243 -0.1277
  828SOL    HW1 3108   1.132   2.582   2.448  0.7295  1.3527  2.7112
  828SOL    HW2 3109   1.088   2.696   2.340  0.7982 -0.1889  1.0180
  829SOL     OW 3110   3.584   0.259   0.037  0.6196 -0.0722  0.0291
  829SOL    HW1 3111   3.601   0.311  -0.046 -0.6024  1.2049  0.5410
  829SOL    HW2 3112   3.510   0.193   0.021  1.4728 -0.9832 -0.3212
  830SOL     OW 3113   0.076   3.477   2.867  0.1794 -0.7622  0.4184
  830SOL    HW1 3114   0.109   3.449   2.957  3.1770  0.1965 -0.2625
  830SOL    HW2 3115   0.149   3.466   2.800 -0.9631  1.3809 -1.3134
  831SOL     OW 3116   2.915   3.989   0.136 -0.1318  0.3596  0.8946
  831SOL    HW1 3117   2.818   3.966   0.147 -0.5538  0.9903 -1.0710
  831SOL    HW2 3118   2.935   4.073   0.187 -0.4931 -0.0310  1.6989
  832SOL     OW 3119   1.625   4.373   0.797  0.6693 -0.5508 -0.2454
  832SOL    HW1 3120   1.690   4.440   0.762  1.5061 -0.7129  0.9199
  832SOL    HW2 3121   1.599   4.309   0.724  0.3926  0.6132 -1.1873
  833SOL     OW 3122   0.642   1.907   0.640  0.4420 -0.1168 -0.3395
  833SOL    HW1 3123   0.611   1.930   0.548  1.1775  0.8981 -0.3553
  833SOL    HW2 3124   0.688   1.986   0.680 -0.2075 -0.4029  1.0550
  834SOL     OW 3125   1.810   3.181   1.169 -0.8291  0.3070  0.7113
  834SOL    HW1 3126   1.865   3.134   1.100 -0.5009  1.3978  0.2083
  834SOL    HW2 3127   1.852   3.269   1.191 -0.2032 -0.5505  3.2853
  835SOL     OW 3128   4.172   2.986   4.989 -0.4542 -0.3488 -0.2298
  835SOL    HW1 3129   4.138   3.079   5.004  0.9815  0.1087  0.3894
  835SOL    HW2 3130   4.095   2.924   4.974 -1.4043  1.0331 -1.2616
  836SOL     OW 3131   3.596   1.129   4.802 -0.3663 -0.1088  0.3421
  836SOL    HW1 3132   3.624   1.036   4.826 -2.0543 -0.2981  1.8429
  836SOL    HW2 3133   3.645   1.159   4.720  1.6304 -1.5766  0.9208
  837SOL     OW 3134   4.367   3.864   0.277 -0.0891  0.3510 -0.0183
  837SOL    HW1 3135   4.400   3.914   0.357  3.1009  0.3993 -1.2107
  837SOL    HW2 3136   4.414   3.898   0.195  0.1100 -2.6485 -1.2695
  838SOL     OW 3137   3.601   2.572   1.048 -0.9552  0.1324  0.3890
  838SOL    HW1 3138   3.683   2.607   1.092 -0.4204 -0.1215 -0.3773
  838SOL    HW2 3139   3.584   2.624   0.963 -0.0625 -1.5115 -0.8430
  839SOL     OW 3140   0.458   3.322   3.681 -0.0453  0.0365 -0.5657
  839SOL    HW1 3141   0.397   3.388   3.639 -1.0361 -0.4780  0.0311
  839SOL    HW2 3142   0.536   3.304   3.620  1.3731  3.2575  0.0934
  840SOL     OW 3143   1.381   3.143   1.121 -1.0060  0.8326 -0.3145
  840SOL    HW1 3144   1.378   3.063   1.181  3.2133  0.7660  0.0712
  840SOL    HW2 3145   1.407   3.223   1.174 -3.9107  2.3153 -0.9487
  841SOL     OW 3146   2.156   3.420   4.374  0.0745 -1.1692 -0.2481
  841SOL    HW1 3147   2.091   3.368   4.429 -0.5089 -0.5387 -0.3310
  841SOL    HW2 3148   2.239   3.365   4.360  0.2471 -1.3509  1.2774
  842SOL     OW 3149   2.435   0.209   1.371  0.0849  0.4271 -0.8497
  842SOL    HW1 3150   2.466   0.116   1.352  1.0749  0.2994  1.0987
  842SOL    HW2 3151   2.359   0.232   1.311  2.4900 -0.0638 -4.4113
  843SOL     OW 3152   4.950   0.856   1.857  0.5663 -0.2397  0.5976
  843SOL    HW1 3153   5.031   0.879   1.911  0.6277  1.2255 -0.0613
  843SOL    HW2 3154   4.928   0.933   1.796 -1.3995 -0.5346  0.8707
  844SOL     OW 3155   3.347   4.592   2.455  0.2489 -0.2386  0.5728
  844SOL    HW1 3156   3.386   4.596   2.363  1.3944  1.3115  1.0948
  844SOL    HW2 3157   3.379   4.670   2.508  0.8503 -1.9110  2.7822
  845SOL     OW 3158   1.877   1.970   1.624 -0.5325 -0.4966  0.2156
  845SOL    HW1 3159   1.786   1.930   1.626 -0.3317 -0.9270  0.9756
  845SOL    HW2 3160   1.928   1.942   1.706  0.1192  0.1124  0.0282
  846SOL     OW 3161   0.767   2.741   2.386  0.3645 -0.7873  0.0066
  846SOL    HW1 3162   0.687   2.689   2.416 -2.1380  1.6437 -1.9245
  846SOL    HW2 3163   0.850   2.690   2.409 -1.6709 -3.5910  1.8750
  847SOL     OW 3164   0.622   2.748   4.389 -0.1480  0.5067  0.5599
  847SOL    HW1 3165   0.632   2.844   4.418 -2.0778 -0.0349  3.4555
  847SOL    HW2 3166   0.712   2.710   4.368  0.5182  3.3966 -2.5735
  848SOL     OW 3167   2.808   4.558   3.959  0.5739  0.2929 -0.4519
  848SOL    HW1 3168   2.817   4.495   3.881 -2.2540  1.2612 -1.6737
  848SOL    HW2 3169   2.801   4.652   3.925 -2.3856  0.6070  0.7588
  849SOL     OW 3170   0.953   0.929   0.826 -0.0483 -0.5291  0.6928
  849SOL    HW1 3171   0.926   1.025   0.815  0.2370 -0.5467 -0.2463
  849SOL    HW2 3172   1.032   0.910   0.767  0.0197 -1.2922  1.0240
  850SOL     OW 3173   0.391   1.949   2.806  1.0204  0.1150  0.7290
  850SOL    HW1 3174   0.434   2.039   2.817  0.0424  0.7796 -0.6028
  850SOL    HW2 3175   0.403   1.896   2.890  1.2482  1.6419  1.7020
  851SOL     OW 3176   0.058   3.964   3.694 -0.0125 -0.6222  0.1626
  851SOL    HW1 3177   0.091   4.013   3.613 -0.6388  1.3729  1.0537
  851SOL    HW2 3178  -0.042   3.959   3.692 -0.0049 -1.0873  0.5476
  852SOL     OW 3179   0.024   4.928   0.981  0.6257 -0.9178  0.7120
  852SOL    HW1 3180  -0.043   4.864   1.019 -0.5974  0.3497  0.7927
  852SOL    HW2 3181  -0.013   5.021   0.986  1.7940 -0.3485 -0.6286
  853SOL     OW 3182   0.571   3.006   2.778  0.6551  0.2068  0.8665
  853SOL    HW1 3183   0.561   2.908   2.765 -2.4662  0.6282 -0.7381
  853SOL    HW2 3184   0.488   3.044   2.820  1.1629  2.3628  0.0887
  854SOL     OW 3185   1.937   4.460   4.980 -0.0080  0.2669 -0.4015
  854SOL    HW1 3186   1.971   4.539   4.930 -2.1940  0.1116 -2.3246
  854SOL    HW2 3187   1.961   4.376   4.931 -1.7403  0.0827 -1.0155
  855SOL     OW 3188   2.081   2.958   3.171  0.4798 -0.2568  0.0933
  855SOL    HW1 3189   2.025   3.035   3.201 -0.1583 -0.0469 -1.5153
  855SOL    HW2 3190   2.041   2.873   3.205 -1.3923 -0.1800 -1.7047
  856SOL     OW 3191   0.967   0.403   2.000 -0.1274 -0.4746  0.5764
  856SOL    HW1 3192   0.894   0.370   1.940  0.6085 -2.0702  0.5202
  856SOL    HW2 3193   0.989   0.332   2.067  1.8291 -0.2613  0.1903
  857SOL     OW 3194   2.945   3.798   4.876 -0.0117  0.6564  1.0045
  857SOL    HW1 3195   2.953   3.767   4.971 -1.6165  1.3554  1.4075
  857SOL    HW2 3196   2.970   3.724   4.814  1.0266  0.1818  1.9603
  858SOL     OW 3197   1.205   4.644   4.086 -0.0759 -0.1853 -0.1801
  858SOL    HW1 3198   1.144   4.641   4.006 -1.2183 -2.1822  0.6987
  858SOL    HW2 3199   1.249   4.734   4.090 -5.0122  2.5814  0.6145
  859SOL     OW 3200   1.919   2.496   3.171 -0.1001 -0.2469 -1.0012
  859SOL    HW1 3201   1.943   2.406   3.133 -3.0099 -0.0758 -3.6621
  859SOL    HW2 3202   1.825   2.494   3.203 -0.2864  1.8901 -1.2704
  860SOL     OW 3203   4.309   2.221   0.138  0.2952  1.0508  0.2762
  860SOL    HW1 3204   4.245   2.224   0.215  2.5990 -0.4988  2.4065
  860SOL    HW2 3205   4.393   2.174   0.166  1.6945  1.3847 -2.9120
  861SOL     OW 3206   4.443   4.134   0.935  0.2406 -0.6718  0.8832
  861SOL    HW1 3207   4.467   4.130   0.838  2.2279  0.1631  1.2985
  861SOL    HW2 3208   4.391   4.052   0.959  0.0339 -1.0736 -0.7932
  862SOL     OW 3209   2.761   3.814   4.161 -0.0495 -0.1086 -0.4495
  862SOL    HW1 3210   2.668   3.785   4.140 -0.2962  1.0591 -1.0541
  862SOL    HW2 3211   2.784   3.787   4.254 -1.8183  1.4793  0.5185
  863SOL     OW 3212   2.189   2.214   2.490  0.4800  0.9817 -0.2083
  863SOL    HW1 3213   2.182   2.122   2.452  0.2010  0.6312  0.6765
  863SOL    HW2 3214   2.245   2.212   2.573  0.4347  1.6012 -0.1586
  864SOL     OW 3215   1.321   0.675   2.672  0.3490  0.3864  0.6705
  864SOL    HW1 3216   1.282   0.606   2.610  1.1434  1.0419 -0.5908
  864SOL    HW2 3217   1.420   0.673   2.667  0.4400  0.4081  2.0089
  865SOL     OW 3218   2.293   4.014   2.314 -0.4958  0.1764  0.1692
  865SOL    HW1 3219   2.265   4.096   2.364 -1.3291  0.7203 -1.1338
  865SOL    HW2 3220   2.390   3.995   2.332 -0.4613  1.0733  0.9820
  866SOL     OW 3221   4.999   2.917   2.092  0.6201  0.5049  0.1550
  866SOL    HW1 3222   4.940   2.965   2.027  2.1206  0.2623 -1.4627
  866SOL    HW2 3223   5.018   2.975   2.170 -0.3939  1.2111 -0.1108
  867SOL     OW 3224   3.868   0.586   2.432  0.5901  0.3699  0.5464
  867SOL    HW1 3225   3.888   0.659   2.367 -0.3360  0.7034  0.6184
  867SOL    HW2 3226   3.912   0.501   2.401  2.5547  1.1698  1.0124
  868SOL     OW 3227   1.121   0.069   0.098  0.8657  0.5139 -0.5555
  868SOL    HW1 3228   1.114  -0.028   0.075 -1.1454  0.8241 -1.4037
  868SOL    HW2 3229   1.057   0.091   0.172 -0.3287  1.5925 -1.8542
  869SOL     OW 3230   3.677   3.731   3.288  0.5128  0.3809  0.3084
  869SOL    HW1 3231   3.665   3.632   3.293 -0.3136  0.5152  1.2079
  869SOL    HW2 3232   3.766   3.756   3.327  2.1712 -0.2465 -2.7136
  870SOL     OW 3233   1.499   4.167   1.831 -0.3662  1.0014 -0.3810
  870SOL    HW1 3234   1.530   4.259   1.852  0.8069  1.1649 -2.6208
  870SOL    HW2 3235   1.459   4.126   1.914 -1.9695  3.8608  0.3964
  871SOL     OW 3236   4.729   0.646   2.382 -0.3581  0.3066 -0.2272
  871SOL    HW1 3237   4.752   0.624   2.287 -0.4893 -0.0273 -0.1821
  871SOL    HW2 3238   4.812   0.647   2.437 -0.2122  1.0280 -0.4476
  872SOL     OW 3239   4.334   3.354   3.831  0.0024 -0.0798 -0.2370
  872SOL    HW1 3240   4.357   3.448   3.857 -1.8856  1.3716 -3.1935
  872SOL    HW2 3241   4.417   3.304   3.810  0.9988  1.4698 -0.2033
  873SOL     OW 3242   3.936   0.033   0.517  0.5494 -0.6097  0.0272
  873SOL    HW1 3243   3.919   0.092   0.438 -1.4668 -2.0382 -0.6752
  873SOL    HW2 3244   3.849   0.002   0.554  1.4102  0.2730  3.0773
  874SOL     OW 3245   4.841   2.174   2.994 -0.4194 -0.4431 -0.7615
  874SOL    HW1 3246   4.926   2.175   2.941 -0.0590 -0.0535 -0.1860
  874SOL    HW2 3247   4.805   2.081   2.995  0.4056 -0.7727 -0.3887
  875SOL     OW 3248   2.110   1.223   3.791  0.0980 -0.9085  0.4126
  875SOL    HW1 3249   2.119   1.123   3.793  0.0778 -1.1255 -3.1679
  875SOL    HW2 3250   2.197   1.263   3.763 -0.8083 -0.3104 -1.7958
  876SOL     OW 3251   1.947   4.946   2.311 -0.1145  0.0890 -1.0776
  876SOL    HW1 3252   1.926   5.027   2.255 -0.8448  0.8941  0.3152
  876SOL    HW2 3253   2.006   4.973   2.387  1.8016 -1.2058 -2.0185
  877SOL     OW 3254   0.674   3.203   3.561  0.6246  0.7306  0.6505
  877SOL    HW1 3255   0.667   3.162   3.471  0.9032 -0.0165  0.9626
  877SOL    HW2 3256   0.665   3.132   3.631  0.7117  1.2558  1.2022
  878SOL     OW 3257   3.843   1.919   1.197  0.0708  0.2544  0.0344
  878SOL    HW1 3258   3.893   2.000   1.165  1.5437 -0.7242 -0.2000
  878SOL    HW2 3259   3.759   1.909   1.144  0.6461  0.7424 -0.9915
  879SOL     OW 3260   4.558   0.978   2.856  0.3507 -0.1915 -0.1927
  879SOL    HW1 3261   4.509   0.988   2.943  0.6994  0.1410 -0.0272
  879SOL    HW2 3262   4.511   0.912   2.798  1.9067 -2.9852  1.5386
  880SOL     OW 3263   3.415   0.328   2.143 -0.1269 -1.4078  0.1973
  880SOL    HW1 3264   3.481   0.285   2.205  1.8817 -1.5362 -1.8850
  880SOL    HW2 3265   3.436   0.302   2.048 -0.9938  1.3698 -0.8654
  881SOL     OW 3266   3.720   4.470   3.336 -0.8334  0.0120  0.3039
  881SOL    HW1 3267   3.671   4.541   3.387 -0.6305  1.9873 -2.0869
  881SOL    HW2 3268   3.809   4.454   3.380 -1.7363 -0.3664  2.0940
  882SOL     OW 3269   0.754   2.987   1.354 -0.5831 -0.0331  0.5628
  882SOL    HW1 3270   0.840   3.011   1.308 -1.1921  2.0738  0.4310
  882SOL    HW2 3271   0.775   2.926   1.431  0.5223 -3.0015 -1.9006
  883SOL     OW 3272   4.219   2.327   2.430  0.0354  0.2932 -0.6060
  883SOL    HW1 3273   4.150   2.333   2.502 -2.6198 -0.6523 -2.9005
  883SOL    HW2 3274   4.265   2.416   2.421 -0.5481  0.8409  1.2679
  884SOL     OW 3275   1.585   1.535   3.884 -0.0609  0.3479  0.6496
  884SOL    HW1 3276   1.648   1.568   3.954  1.6300  0.5466 -0.8617
  884SOL    HW2 3277   1.628   1.460   3.834 -1.7701 -0.6912  0.6910
  885SOL     OW 3278   4.168   1.438   2.003  0.6147 -0.4756 -0.4998
  885SOL    HW1 3279   4.097   1.497   1.964  0.4043 -1.9302 -2.4798
  885SOL    HW2 3280   4.223   1.491   2.068 -1.3278  1.0832 -0.0084
  886SOL     OW 3281   2.843   3.997   0.896  0.3853  0.6552 -0.2952
  886SOL    HW1 3282   2.888   3.928   0.839 -0.6482  1.4682 -2.1907
  886SOL    HW2 3283   2.883   4.087   0.876 -1.7361  1.3467 -1.7691
  887SOL     OW 3284   0.818   1.095   3.706  0.1499  0.1564 -0.1252
  887SOL    HW1 3285   0.759   1.030   3.755  0.8439  1.5239  2.7224
  887SOL    HW2 3286   0.825   1.067   3.610  2.6394 -5.6429  1.3024
  888SOL     OW 3287   1.131   4.300   1.817  0.0639 -0.6799 -0.6959
  888SOL    HW1 3288   1.060   4.365   1.844  0.6085 -0.3192 -0.0913
  888SOL    HW2 3289   1.152   4.312   1.720 -1.5413 -1.6202 -1.1854
  889SOL     OW 3290   0.649   1.957   0.099  0.5213 -0.1420  0.6990
  889SOL    HW1 3291   0.709   1.895   0.048  0.0901 -3.1535  3.5267
  889SOL    HW2 3292   0.575   1.988   0.039  0.9070 -2.1912 -0.9663
  890SOL     OW 3293   3.804   0.453   0.108 -0.1577 -0.4620 -0.1725
  890SOL    HW1 3294   3.902   0.446   0.128 -0.4207 -1.7523  0.8138
  890SOL    HW2 3295   3.767   0.362   0.091 -0.8056  0.1853 -2.6111
  891SOL     OW 3296   1.239   1.024   4.689 -0.1881  0.7798  0.4928
  891SOL    HW1 3297   1.199   0.945   4.643  1.6157  0.8820 -1.3815
  891SOL    HW2 3298   1.168   1.094   4.701 -0.9084  0.4920 -1.5980
  892SOL     OW 3299   1.001   3.803   0.334  0.7589  0.3761  0.4397
  892SOL    HW1 3300   0.923   3.745   0.358  2.0946 -0.8075  2.2169
  892SOL    HW2 3301   0.990   3.836   0.240 -1.3548 -0.5727  0.2878
  893SOL     OW 3302   2.346   2.104   3.586  0.0712  0.2233  0.5494
  893SOL    HW1 3303   2.266   2.065   3.630  0.3674  1.1834  2.0180
  893SOL    HW2 3304   2.396   2.033   3.536 -0.3672 -0.8713  1.6511
  894SOL     OW 3305   4.058   2.925   2.603 -0.3045 -0.5902  0.9182
  894SOL    HW1 3306   4.147   2.893   2.633 -0.2734 -0.3983  1.0312
  894SOL    HW2 3307   3.999   2.942   2.682  0.0043  0.5714  0.9215
  895SOL     OW 3308   0.436   3.234   4.906  0.2414 -0.9387  0.7207
  895SOL    HW1 3309   0.477   3.258   4.818 -1.4056 -0.2154  0.1100
  895SOL    HW2 3310   0.396   3.143   4.901 -1.7515 -0.0644 -0.0196
  896SOL     OW 3311   3.187   2.245   1.766 -0.7458 -0.0543 -0.5956
  896SOL    HW1 3312   3.103   2.235   1.712 -1.1620  0.6047 -0.1029
  896SOL    HW2 3313   3.262   2.197   1.722 -1.3380 -0.4764 -1.1599
  897SOL     OW 3314   1.502   0.130   4.302 -0.2498 -0.1529  0.6236
  897SOL    HW1 3315   1.527   0.192   4.377  1.8545 -1.0079  0.7125
  897SOL    HW2 3316   1.493   0.182   4.218  1.2286  0.3659  0.7453
  898SOL     OW 3317   3.230   4.343   3.902  0.6871 -0.1297  0.6246
  898SOL    HW1 3318   3.153   4.316   3.959  1.8168 -0.9347  1.8439
  898SOL    HW2 3319   3.215   4.313   3.808  1.1287 -3.7389  1.5704
  899SOL     OW 3320   1.409   2.570   3.751  0.0761  0.2999 -1.1660
  899SOL    HW1 3321   1.468   2.545   3.675  0.6079  1.2067 -1.0657
  899SOL    HW2 3322   1.465   2.595   3.830 -0.4329  1.0067 -1.0178
  900SOL     OW 3323   1.258   2.534   2.921 -0.4486 -0.0032 -0.5262
  900SOL    HW1 3324   1.316   2.457   2.948  2.5955  2.8692  1.9279
  900SOL    HW2 3325   1.192   2.554   2.994 -1.2616 -0.2469 -1.1751
  901SOL     OW 3326   1.114   4.415   0.371 -0.4963  0.5737  0.1657
  901SOL    HW1 3327   1.087   4.438   0.277  0.6192 -2.6734 -1.0805
  901SOL    HW2 3328   1.212   4.433   0.382  0.0516 -1.7237 -0.3497
  902SOL     OW 3329   1.651   1.218   3.431 -0.2515 -0.6351  0.7017
  902SOL    HW1 3330   1.568   1.213   3.375 -1.1119 -1.6882  2.0106
  902SOL    HW2 3331   1.690   1.127   3.442  0.8982 -0.2047  0.4131
  903SOL     OW 3332   1.069   2.387   4.516  0.3376  0.6295  0.2998
  903SOL    HW1 3333   1.017   2.450   4.573 -1.8217 -0.0883 -0.7514
  903SOL    HW2 3334   1.029   2.385   4.424 -0.4627 -3.0056  0.5709
  904SOL     OW 3335   1.301   2.908   0.090  0.4639  0.0675  0.6623
  904SOL    HW1 3336   1.207   2.873   0.083  0.3311  0.5120  0.0812
  904SOL    HW2 3337   1.365   2.837   0.059  0.2593  0.0353  0.3037
  905SOL     OW 3338   2.936   3.533   1.240 -0.9808  0.5587  0.3275
  905SOL    HW1 3339   3.030   3.507   1.261 -1.3317 -0.5757  0.5499
  905SOL    HW2 3340   2.893   3.569   1.323 -1.3419 -0.8016  0.7551
  906SOL     OW 3341   4.708   3.216   4.513  0.1526  0.1292  0.3562
  906SOL    HW1 3342   4.720   3.120   4.486 -0.8969  0.6472 -2.2841
  906SOL    HW2 3343   4.797   3.256   4.533  0.7410 -1.0683  0.2690
  907SOL     OW 3344   2.760   1.241   4.043  0.8913  0.0385  0.6634
  907SOL    HW1 3345   2.700   1.321   4.044  3.6961  2.2862  0.9659
  907SOL    HW2 3346   2.706   1.160   4.022 -2.1997  1.8762  0.8868
  908SOL     OW 3347   0.369   3.467   2.411 -0.0108 -0.4282  0.1095
  908SOL    HW1 3348   0.466   3.480   2.431  0.4258 -0.3042 -1.9068
  908SOL    HW2 3349   0.317   3.544   2.448  0.6913 -0.3052  0.8745
  909SOL     OW 3350   3.361   2.455   2.075 -0.3381 -0.2442 -0.3387
  909SOL    HW1 3351   3.275   2.478   2.121 -0.5037  0.1265 -0.8274
  909SOL    HW2 3352   3.420   2.535   2.073 -1.1961  0.4168 -2.6564
  910SOL     OW 3353   3.099   0.492   3.674  0.1186  0.0124 -0.2389
  910SOL    HW1 3354   3.059   0.417   3.726 -0.4242 -1.6029 -2.8048
  910SOL    HW2 3355   3.031   0.564   3.661 -0.6841 -0.8854 -1.1256
  911SOL     OW 3356   1.309   2.460   3.489 -0.6490  0.1785 -0.5004
  911SOL    HW1 3357   1.224   2.501   3.458 -0.0924  2.3878  0.6696
  911SOL    HW2 3358   1.289   2.385   3.552 -1.7360  0.6191 -0.3003
  912SOL     OW 3359   1.769   2.652   2.386 -0.8877  0.2783  0.4617
  912SOL    HW1 3360   1.720   2.670   2.471 -0.8748 -1.3244  0.8386
  912SOL    HW2 3361   1.754   2.728   2.323 -0.0830  1.9898  2.2239
  913SOL     OW 3362   3.967   0.792   3.013  0.3537  0.7742  0.2872
  913SOL    HW1 3363   3.879   0.773   2.969  0.1251  0.3872  0.9060
  913SOL    HW2 3364   4.036   0.809   2.942  0.8969 -3.5430 -0.4651
  914SOL     OW 3365   2.842   0.898   3.864  0.5493  0.1982  0.3973
  914SOL    HW1 3366   2.890   0.871   3.948  0.8127  0.7269  0.4211
  914SOL    HW2 3367   2.748   0.923   3.887  1.3662  3.0536  1.0266
  915SOL     OW 3368   1.489   0.577   2.844 -0.2531 -0.0316 -0.6210
  915SOL    HW1 3369   1.399   0.618   2.831 -0.2474  0.4053  0.5861
  915SOL    HW2 3370   1.560   0.646   2.833 -0.3116  0.8211  3.0175
  916SOL     OW 3371   0.802   2.045   1.925  0.3460 -0.9830  0.3067
  916SOL    HW1 3372   0.798   2.127   1.983  2.7028  2.1937 -3.4632
  916SOL    HW2 3373   0.717   2.036   1.874  1.1919  1.4376 -1.7596
  917SOL     OW 3374   2.350   0.455   3.968  0.2414 -0.5114 -0.2121
  917SOL    HW1 3375   2.338   0.430   4.064  0.9928  0.1115  0.0593
  917SOL    HW2 3376   2.331   0.376   3.910 -2.3646 -0.3207  0.2911
  918SOL     OW 3377   0.984   2.512   3.837  0.0061  0.7193  0.0988
  918SOL    HW1 3378   0.938   2.539   3.753 -0.3201  0.0920  0.0658
  918SOL    HW2 3379   0.998   2.413   3.837  6.1881  1.1288 -2.3968
  919SOL     OW 3380   4.836   2.596   3.687 -0.4475 -0.0828  0.1391
  919SOL    HW1 3381   4.909   2.552   3.635 -0.1655 -0.8409  1.1518
  919SOL    HW2 3382   4.747   2.575   3.646 -0.0994  1.6177 -1.6755
  920SOL     OW 3383   2.885   2.239   0.311  0.1468 -0.7737 -0.2004
  920SOL    HW1 3384   2.931   2.257   0.224  1.3597  1.0962  0.7609
  920SOL    HW2 3385   2.953   2.235   0.385 -1.0759  1.2394  1.1482
  921SOL     OW 3386   2.093   3.315   4.982  0.4199 -0.0028 -0.1844
  921SOL    HW1 3387   2.034   3.395   4.985 -0.1401 -0.3847 -0.7248
  921SOL    HW2 3388   2.127   3.302   4.888  0.3990 -0.4706 -0.1294
  922SOL     OW 3389   1.443   0.454   0.201 -0.3683 -0.0437 -0.7294
  922SOL    HW1 3390   1.373   0.386   0.180 -0.5904  0.1928 -0.7533
  922SOL    HW2 3391   1.418   0.504   0.283  1.0198 -1.7031  0.7890
  923SOL     OW 3392   4.593   3.928   1.369 -0.0853  0.2479  0.3285
  923SOL    HW1 3393   4.554   4.010   1.411  0.2457  1.1781 -1.1250
  923SOL    HW2 3394   4.559   3.847   1.417 -2.1416  1.1191  0.4553
  924SOL     OW 3395   1.365   3.029   3.538  0.0429  0.0133 -0.2111
  924SOL    HW1 3396   1.269   3.050   3.518 -0.0255  1.6179  1.4711
  924SOL    HW2 3397   1.421   3.053   3.459 -0.9438 -1.1335 -1.2911
  925SOL     OW 3398   0.128   4.931   1.964  0.4958  0.9215  0.2764
  925SOL    HW1 3399   0.196   4.872   1.920 -0.6879 -2.7857  2.8287
  925SOL    HW2 3400   0.165   4.964   2.051  0.6087  2.8808 -0.4767
  926SOL     OW 3401   4.581   2.609   1.626 -0.0848 -0.1650  0.9912
  926SOL    HW1 3402   4.520   2.673   1.581  1.6716  0.9085  0.0249
  926SOL    HW2 3403   4.635   2.559   1.558 -0.9280 -2.2462  1.7471
  927SOL     OW 3404   1.654   3.662   3.053  0.7535 -0.5520  0.2466
  927SOL    HW1 3405   1.571   3.695   3.007  1.2491  1.3451  0.6294
  927SOL    HW2 3406   1.629   3.608   3.133 -0.1383  0.3837  0.6193
  928SOL     OW 3407   4.176   2.443   4.072 -0.4868  0.1332  0.3102
  928SOL    HW1 3408   4.114   2.517   4.098  0.7754  1.7266 -0.9252
  928SOL    HW2 3409   4.127   2.375   4.017 -1.1421  1.4027 -0.7221
  929SOL     OW 3410   1.634   2.130   4.262 -0.0655  1.0683  0.5548
  929SOL    HW1 3411   1.558   2.175   4.308 -0.5219  3.0413 -1.9467
  929SOL    HW2 3412   1.606   2.099   4.171  1.8759  1.0416 -0.0852
  930SOL     OW 3413   1.369   3.482   3.408 -0.0777 -0.3818  0.5716
  930SOL    HW1 3414   1.324   3.487   3.319  1.2102  1.5528 -0.0299
  930SOL    HW2 3415   1.468   3.484   3.395  0.1247  0.5953  2.0747
  931SOL     OW 3416   2.556   4.668   4.734  0.7232  0.3834  0.1473
  931SOL    HW1 3417   2.618   4.590   4.747  0.6651  0.7860  3.9571
  931SOL    HW2 3418   2.610   4.749   4.712  1.2237  0.0732  0.1961
  932SOL     OW 3419   3.367   4.507   0.233  0.1020 -0.4785  0.3960
  932SOL    HW1 3420   3.437   4.493   0.304  2.6374 -0.7319 -1.9792
  932SOL    HW2 3421   3.388   4.449   0.155 -0.2137  2.6018 -2.1533
  933SOL     OW 3422   1.912   3.009   2.742  0.5120  0.2441  0.0951
  933SOL    HW1 3423   1.961   3.042   2.662  4.2134  0.7171  2.3333
  933SOL    HW2 3424   1.977   2.987   2.815 -2.6376  0.1282  3.1495
  934SOL     OW 3425   3.801   0.093   0.200  0.2757 -0.2195  0.1108
  934SOL    HW1 3426   3.823   0.058   0.109  0.2634 -0.3742  0.1667
  934SOL    HW2 3427   3.853   0.176   0.218  0.9535 -0.6808  0.3178
  935SOL     OW 3428   0.125   1.865   2.259 -0.2272 -0.3369  0.5805
  935SOL    HW1 3429   0.093   1.828   2.346  1.1955 -0.6596  0.9951
  935SOL    HW2 3430   0.096   1.804   2.185 -2.4981  0.5616  0.6304
  936SOL     OW 3431   1.925   4.788   0.997 -1.1522  0.0635  0.6303
  936SOL    HW1 3432   1.949   4.885   0.984  1.8273 -0.0872  3.5466
  936SOL    HW2 3433   1.927   4.741   0.909  2.0875  1.7649 -0.3609
  937SOL     OW 3434   1.422   0.610   4.375  0.5207  0.1548  0.5174
  937SOL    HW1 3435   1.339   0.570   4.412  0.9206  0.3448  1.6735
  937SOL    HW2 3436   1.498   0.591   4.437  1.6598 -1.2400 -1.1857
  938SOL     OW 3437   0.858   3.540   1.173 -0.5618  0.3812  0.1488
  938SOL    HW1 3438   0.936   3.597   1.148  0.4164 -0.9104  0.1323
  938SOL    HW2 3439   0.796   3.533   1.095 -0.4297  0.9820 -0.0163
  939SOL     OW 3440   2.167   0.026   3.713 -0.5867 -0.6139 -0.8756
  939SOL    HW1 3441   2.172  -0.062   3.759 -2.1712  0.0802  0.7113
  939SOL    HW2 3442   2.240   0.032   3.645  3.3630 -0.9067  2.8985
  940SOL     OW 3443   4.475   2.581   1.865 -0.7230 -0.0714 -0.1832
  940SOL    HW1 3444   4.492   2.574   1.767  0.6063  1.5115 -0.1184
  940SOL    HW2 3445   4.433   2.669   1.886  1.3800  0.7489  0.8890
  941SOL     OW 3446   1.961   0.288   0.866  1.0947  0.6697  0.2492
  941SOL    HW1 3447   2.025   0.323   0.934  1.0143  0.2763  0.5294
  941SOL    HW2 3448   1.882   0.349   0.860  1.1937  0.8091  0.3686
  942SOL     OW 3449   4.399   1.984   1.252 -0.3058 -0.3137 -0.1847
  942SOL    HW1 3450   4.435   2.031   1.332  1.1711 -1.5451 -0.0839
  942SOL    HW2 3451   4.318   1.932   1.277  1.7502 -3.0999  1.3540
  943SOL     OW 3452   1.919   3.391   2.342 -0.0854  0.8255  0.5118
  943SOL    HW1 3453   1.973   3.462   2.299  0.2851  0.4082  0.2789
  943SOL    HW2 3454   1.824   3.398   2.312  0.5490 -0.8710 -2.2895
  944SOL     OW 3455   4.115   2.650   1.118 -0.4704 -0.9515 -0.4264
  944SOL    HW1 3456   4.204   2.655   1.161  1.1797 -1.3677 -3.4903
  944SOL    HW2 3457   4.093   2.739   1.076 -0.1266 -1.5845 -2.0352
  945SOL     OW 3458   4.544   4.628   3.857 -0.2802 -0.3043  0.0654
  945SOL    HW1 3459   4.602   4.707   3.837  2.7238 -1.9021  1.6850
  945SOL    HW2 3460   4.602   4.549   3.876 -3.1268 -3.0572 -1.7203
  946SOL     OW 3461   0.916   3.624   2.676 -0.0154  0.9366 -0.7846
  946SOL    HW1 3462   0.926   3.529   2.647  1.6381  1.2105 -1.1979
  946SOL    HW2 3463   0.819   3.644   2.692 -0.7699  0.0385 -3.6253
  947SOL     OW 3464   1.109   1.639   0.288  0.3571  0.0735  0.6007
  947SOL    HW1 3465   1.046   1.715   0.272  0.2905 -0.4564 -2.2573
  947SOL    HW2 3466   1.183   1.643   0.220  0.6761 -2.0669  0.7597
  948SOL     OW 3467   4.892   4.767   0.005 -0.2739  0.1128 -0.1360
  948SOL    HW1 3468   4.947   4.699   0.054 -2.1882 -1.0590  0.5096
  948SOL    HW2 3469   4.883   4.740  -0.091 -2.2510 -1.4752  0.4180
  949SOL     OW 3470   3.487   3.570   0.549  0.3664  0.2006 -0.6135
  949SOL    HW1 3471   3.537   3.503   0.604  1.8514  0.4629 -1.5655
  949SOL    HW2 3472   3.478   3.655   0.600 -0.6321 -0.3932  0.2164
  950SOL     OW 3473   4.591   2.457   4.977 -0.0989  0.2360 -0.1714
  950SOL    HW1 3474   4.582   2.554   4.954  1.6287  0.1176 -1.6082
  950SOL    HW2 3475   4.503   2.421   5.008 -0.3123  2.7594  2.5775
  951SOL     OW 3476   4.492   2.119   0.358  0.9934 -0.8434 -0.0950
  951SOL    HW1 3477   4.592   2.125   0.359  1.0215 -1.2555  1.3677
  951SOL    HW2 3478   4.453   2.194   0.412  0.4865 -0.5238 -0.8814
  952SOL     OW 3479   4.594   2.468   4.169 -0.0816 -0.2270  0.2532
  952SOL    HW1 3480   4.626   2.515   4.087  1.5319  0.1239  1.0420
  952SOL    HW2 3481   4.650   2.495   4.247 -0.6239 -1.6875  1.1897
  953SOL     OW 3482   2.194   2.659   3.467  0.7854  0.2913 -0.6928
  953SOL    HW1 3483   2.229   2.649   3.374  2.9567 -1.7665  0.2676
  953SOL    HW2 3484   2.214   2.577   3.520 -0.5509  1.3328  1.5935
  954SOL     OW 3485   4.102   4.402   1.715  0.6165  0.2670  0.0151
  954SOL    HW1 3486   4.086   4.496   1.685 -0.9108 -0.8207 -3.1584
  954SOL    HW2 3487   4.196   4.376   1.694  0.6611  0.7148 -0.3618
  955SOL     OW 3488   3.612   4.454   0.382 -0.2448  0.8282 -0.0196
  955SOL    HW1 3489   3.605   4.367   0.334  0.7674  1.9256 -2.3252
  955SOL    HW2 3490   3.673   4.445   0.460 -2.2412 -1.1122  1.4369
  956SOL     OW 3491   1.032   3.381   4.187 -0.0666 -0.2204  0.1890
  956SOL    HW1 3492   0.948   3.419   4.225 -1.6328 -1.8368 -1.4970
  956SOL    HW2 3493   1.100   3.454   4.178 -2.2405  1.7854 -1.0588
  957SOL     OW 3494   0.881   4.258   0.267 -0.5358 -0.7700 -0.5434
  957SOL    HW1 3495   0.949   4.266   0.193 -1.3400 -1.0810 -1.3266
  957SOL    HW2 3496   0.922   4.290   0.352  0.6015 -0.9555 -0.9997
  958SOL     OW 3497   3.648   4.811   2.126 -0.1117 -0.0666 -0.5653
  958SOL    HW1 3498   3.715   4.741   2.102  1.6801  2.5478 -4.0886
  958SOL    HW2 3499   3.690   4.878   2.187 -0.8013 -0.3617  0.2539
  959SOL     OW 3500   1.709   4.715   2.846 -0.2455 -0.5814 -0.3599
  959SOL    HW1 3501   1.771   4.716   2.924  0.2541  1.8063 -0.7076
  959SOL    HW2 3502   1.632   4.655   2.865  2.3192 -4.1389 -0.1259
  960SOL     OW 3503   2.460   2.932   4.351 -0.4435  0.5363  0.1111
  960SOL    HW1 3504   2.498   2.857   4.296 -0.2199 -0.1759  1.1998
  960SOL    HW2 3505   2.450   2.901   4.446 -1.6240  1.4632  0.3026
  961SOL     OW 3506   1.420   3.113   3.250  0.9525 -0.1538 -0.0592
  961SOL    HW1 3507   1.484   3.138   3.177  1.6586 -2.0411 -0.1623
  961SOL    HW2 3508   1.327   3.111   3.213  1.2095 -0.3314 -0.7180
  962SOL     OW 3509   2.906   3.801   2.060 -0.5200 -0.0854  0.2269
  962SOL    HW1 3510   2.955   3.888   2.068 -0.0708 -0.4464  1.8401
  962SOL    HW2 3511   2.962   3.728   2.100 -2.1620 -0.5898  1.7253
  963SOL     OW 3512   0.603   0.914   1.104 -0.6738 -0.0983  0.2209
  963SOL    HW1 3513   0.579   0.888   1.011 -1.1705 -0.0387  0.3320
  963SOL    HW2 3514   0.628   1.011   1.106 -0.1216 -0.2299  0.0540
  964SOL     OW 3515   1.880   3.016   4.809  0.3854 -0.3537 -0.2488
  964SOL    HW1 3516   1.798   3.029   4.754  0.9589  1.4813 -0.7298
  964SOL    HW2 3517   1.902   3.101   4.857  2.7698 -0.3256 -1.2359
  965SOL     OW 3518   4.432   3.732   3.937  0.2349 -0.8288 -0.5476
  965SOL    HW1 3519   4.405   3.661   4.002 -3.1315  0.8033  0.0921
  965SOL    HW2 3520   4.400   3.708   3.846  2.7213 -1.9230 -1.2175
  966SOL     OW 3521   1.306   4.251   0.894  0.4140 -0.6410 -0.1198
  966SOL    HW1 3522   1.368   4.326   0.918 -0.8955 -0.0449  1.6125
  966SOL    HW2 3523   1.262   4.272   0.807  2.7697 -1.2087 -1.5243
  967SOL     OW 3524   1.364   4.529   0.345 -0.5164 -0.4782 -0.2806
  967SOL    HW1 3525   1.415   4.597   0.292  1.3770 -0.3462  1.5841
  967SOL    HW2 3526   1.414   4.507   0.428 -1.5377 -3.4930 -0.3343
  968SOL     OW 3527   0.661   1.255   0.911 -0.0521  0.0483  0.1374
  968SOL    HW1 3528   0.620   1.165   0.922 -1.1804  0.6614  1.1695
  968SOL    HW2 3529   0.698   1.264   0.819 -1.4436 -0.8587 -0.5316
  969SOL     OW 3530   1.996   0.024   0.912 -0.3826 -0.0482  0.1994
  969SOL    HW1 3531   2.059   0.020   0.990  1.2586 -1.1753 -1.0995
  969SOL    HW2 3532   2.021   0.100   0.852 -1.8442  1.0177  0.9042
  970SOL     OW 3533   2.523   4.057   1.788  0.0623 -0.6280 -0.7754
  970SOL    HW1 3534   2.525   3.964   1.826 -1.1139 -0.1700  0.4475
  970SOL    HW2 3535   2.485   4.120   1.854 -2.3445  0.1645 -2.7706
  971SOL     OW 3536   2.741   4.232   1.358 -0.1760 -0.6813  0.3079
  971SOL    HW1 3537   2.694   4.315   1.330  1.4322  0.7443  1.5948
  971SOL    HW2 3538   2.815   4.212   1.293  2.7494  1.9225  2.5125
  972SOL     OW 3539   1.152   3.990   3.323  0.2230 -0.1329  0.1588
  972SOL    HW1 3540   1.243   3.974   3.285  0.5795 -0.6204  1.1851
  972SOL    HW2 3541   1.133   3.922   3.394 -1.5015 -0.8986 -0.9846
  973SOL     OW 3542   4.485   4.070   0.653  0.3390 -0.4132 -1.1779
  973SOL    HW1 3543   4.573   4.114   0.642  0.0079  1.5307  2.5010
  973SOL    HW2 3544   4.499   3.973   0.674  1.7678  0.0951  0.4925
  974SOL     OW 3545   3.249   2.751   1.955  0.2628  0.3753  0.4218
  974SOL    HW1 3546   3.284   2.742   1.862  0.7071 -0.0516  0.6272
  974SOL    HW2 3547   3.160   2.707   1.962  0.3476  0.1770  0.2649
  975SOL     OW 3548   4.647   0.386   3.186  0.0237 -0.3023  0.5139
  975SOL    HW1 3549   4.555   0.383   3.226  0.6159 -2.2408  1.8981
  975SOL    HW2 3550   4.712   0.345   3.249  2.1798  2.4395  0.2540
  976SOL     OW 3551   1.465   2.706   0.075  0.6790  0.4679 -0.1586
  976SOL    HW1 3552   1.401   2.630   0.090  0.9795  0.3941  0.8522
  976SOL    HW2 3553   1.548   2.671   0.033  0.7823  0.2382  0.2248
  977SOL     OW 3554   0.844   3.289   0.064  0.3449  0.1487 -0.5246
  977SOL    HW1 3555   0.808   3.221  -0.000  3.7308 -1.3017 -1.1011
  977SOL    HW2 3556   0.891   3.242   0.139 -2.6377  1.8182  2.6874
  978SOL     OW 3557   3.157   2.980   1.439  0.1896 -0.3956  0.6327
  978SOL    HW1 3558   3.161   2.880   1.442  0.7386 -0.3566  2.4153
  978SOL    HW2 3559   3.250   3.018   1.446  0.3675  0.2757 -3.2874
  979SOL     OW 3560   1.875   2.147   4.383  0.2850  0.1232  0.7136
  979SOL    HW1 3561   1.949   2.108   4.328  1.5788  2.0413  0.9842
  979SOL    HW2 3562   1.788   2.132   4.337  1.0921 -0.2149 -0.7642
  980SOL     OW 3563   0.826   0.439   3.620 -0.2742  0.0171  0.6449
  980SOL    HW1 3564   0.752   0.373   3.634  0.8556 -1.2693  0.6440
  980SOL    HW2 3565   0.894   0.429   3.693  0.2785  0.6868  0.2356
  981SOL     OW 3566   1.677   1.095   4.533  1.0598  0.2933  0.1066
  981SOL    HW1 3567   1.626   1.009   4.539  1.2769  0.1055 -0.6465
  981SOL    HW2 3568   1.632   1.156   4.468  1.4789  0.3491 -0.1342
  982SOL     OW 3569   1.703   2.571   0.518 -0.5863  0.1446  0.1620
  982SOL    HW1 3570   1.606   2.592   0.506 -1.3984 -3.2808 -0.3186
  982SOL    HW2 3571   1.752   2.583   0.432 -0.9704  0.1580 -0.0526
  983SOL     OW 3572   2.254   4.757   2.701 -0.2486 -1.0861  0.2721
  983SOL    HW1 3573   2.322   4.829   2.712 -0.0418 -0.7693 -2.3277
  983SOL    HW2 3574   2.184   4.766   2.771  1.9700 -1.0132  2.6178
  984SOL     OW 3575   1.615   2.201   2.176 -1.0194 -0.2023 -0.3369
  984SOL    HW1 3576   1.639   2.122   2.119 -0.1081 -0.8922  0.9836
  984SOL    HW2 3577   1.697   2.254   2.196 -1.5077  0.6489 -0.5372
  985SOL     OW 3578   0.361   2.410   3.423  0.9504  0.2515  0.2894
  985SOL    HW1 3579   0.422   2.444   3.495  3.9331 -1.1172 -1.3843
  985SOL    HW2 3580   0.362   2.310   3.424 -0.8242  0.1962 -0.2390
  986SOL     OW 3581   1.472   2.357   2.975  0.3165 -0.1127 -0.4626
  986SOL    HW1 3582   1.499   2.301   3.053  1.4199 -1.6783 -1.8934
  986SOL    HW2 3583   1.452   2.298   2.897 -4.5584  1.0564 -0.4250
  987SOL     OW 3584   1.472   3.541   4.868 -0.3365  0.5854  1.5280
  987SOL    HW1 3585   1.406   3.495   4.927 -3.0228  2.0889 -0.1257
  987SOL    HW2 3586   1.536   3.474   4.831 -0.1070 -0.7447  4.1108
  988SOL     OW 3587   4.725   4.378   0.448  0.6952 -0.4349  0.0850
  988SOL    HW1 3588   4.712   4.281   0.468  0.0340 -0.8830 -2.2303
  988SOL    HW2 3589   4.643   4.429   0.473  0.7589 -0.5801  0.6050
  989SOL     OW 3590   0.768   2.526   0.831 -0.7463  0.1007 -0.4996
  989SOL    HW1 3591   0.762   2.520   0.931  1.5510 -0.5417 -0.3284
  989SOL    HW2 3592   0.786   2.621   0.805 -2.6490  0.5108 -0.4445
  990SOL     OW 3593   2.982   3.677   2.870  0.3971  0.8114  0.5849
  990SOL    HW1 3594   3.003   3.584   2.897 -3.0433  0.1730  1.5805
  990SOL    HW2 3595   2.957   3.731   2.951 -2.7941  0.9948 -0.3703
  991SOL     OW 3596   4.135   0.382   3.508 -0.5854 -0.0355  0.1174
  991SOL    HW1 3597   4.042   0.354   3.530 -1.1327  2.0230  0.6228
  991SOL    HW2 3598   4.158   0.354   3.414 -1.5590 -0.8457  0.1059
  992SOL     OW 3599   4.821   2.353   0.786  0.1435  0.2429 -0.2644
  992SOL    HW1 3600   4.899   2.376   0.844 -0.1754  0.1624  0.2030
  992SOL    HW2 3601   4.762   2.288   0.834  0.1468 -0.2269 -0.8905
  993SOL     OW 3602   1.642   1.306   0.485 -0.1115  0.0374  0.7959
  993SOL    HW1 3603   1.703   1.266   0.552  0.9135  0.2339 -0.0014
  993SOL    HW2 3604   1.679   1.293   0.393  0.4412  2.9996  0.4938
  994SOL     OW 3605   2.860   0.275   4.466  0.0947 -0.4254 -0.2713
  994SOL    HW1 3606   2.814   0.360   4.437 -2.2208 -1.4657  0.1269
  994SOL    HW2 3607   2.846   0.261   4.564 -1.9004 -2.5195 -0.7574
  995SOL     OW 3608   1.022   3.855   1.975  0.0088  1.1545 -0.5442
  995SOL    HW1 3609   1.084   3.880   2.049 -0.7611  0.7728  0.2612
  995SOL    HW2 3610   1.003   3.935   1.918 -0.3863  1.7893  0.4426
  996SOL     OW 3611   0.546   4.709   2.830  0.1349  0.6567 -0.0722
  996SOL    HW1 3612   0.587   4.619   2.816  1.0177  1.4411 -3.8062
  996SOL    HW2 3613   0.468   4.720   2.768 -2.2470  1.3012  2.8212
  997SOL     OW 3614   2.606   0.260   0.049  0.4050 -0.3352  1.2393
  997SOL    HW1 3615   2.674   0.186   0.049  2.6502  1.4145 -2.9207
  997SOL    HW2 3616   2.564   0.268  -0.041 -1.9613  1.6774  2.3861
  998SOL     OW 3617   3.920   1.637   1.304  0.2434 -0.0484 -0.1705
  998SOL    HW1 3618   3.964   1.718   1.343 -0.1335 -0.2071  0.5874
  998SOL    HW2 3619   3.932   1.559   1.365  0.0192 -0.4074 -0.5754
  999SOL     OW 3620   4.054   2.411   0.965  0.2408  0.8746 -0.1833
  999SOL    HW1 3621   4.082   2.491   1.018  0.9353  0.9125 -0.5944
  999SOL    HW2 3622   3.965   2.429   0.922  0.9089  1.8775 -1.1949
 1000SOL     OW 3623   3.026   2.547   1.192  0.3399  0.6446  0.0972
 1000SOL    HW1 3624   3.080   2.475   1.237  0.2690  0.9561  0.6963
 1000SOL    HW2 3625   3.087   2.621   1.164  0.6187 -0.2383 -1.7702
 1001SOL     OW 3626   1.798   1.911   3.699 -0.6004 -0.1632 -0.0067
 1001SOL    HW1 3627   1.848   1.824   3.703  0.3172  0.3498 -0.2382
 1001SOL    HW2 3628   1.704   1.893   3.668 -1.3561 -1.4499  2.7389
 1002SOL     OW 3629   1.851   4.306   0.508 -0.0189 -0.1476  0.2219
 1002SOL    HW1 3630   1.833   4.399   0.475  1.1807 -0.2447 -0.7694
 1002SOL    HW2 3631   1.768   4.251   0.501  0.1884 -0.2041 -2.7756
 1003SOL     OW 3632   2.378   0.699   3.319 -0.4466 -1.0738  0.0363
 1003SOL    HW1 3633   2.449   0.765   3.296  0.6777 -2.2924 -0.0898
 1003SOL    HW2 3634   2.308   0.699   3.248 -1.2093  0.9579  0.7253
 1004SOL     OW 3635   4.823   4.776   3.511 -0.1954  0.7607 -0.3687
 1004SOL    HW1 3636   4.748   4.777   3.445  0.2454 -0.3135 -0.9016
 1004SOL    HW2 3637   4.807   4.705   3.580  1.4162 -1.1030 -1.8153
 1005SOL     OW 3638   2.236   3.047   0.520 -0.0499  0.1496  1.0903
 1005SOL    HW1 3639   2.279   3.033   0.431 -0.4117 -0.1591  0.9628
 1005SOL    HW2 3640   2.218   3.145   0.533  0.9186  0.3111  1.2554
 1006SOL     OW 3641   4.833   1.061   2.848 -0.3840  0.0059 -0.6248
 1006SOL    HW1 3642   4.875   1.062   2.939  0.2200  1.0516 -0.8925
 1006SOL    HW2 3643   4.734   1.049   2.857 -0.5849  1.9536  0.3126
 1007SOL     OW 3644   3.527   2.754   3.967  0.4734 -0.4465  0.3588
 1007SOL    HW1 3645   3.501   2.736   3.872  0.2570 -1.6954  0.6400
 1007SOL    HW2 3646   3.618   2.718   3.984  0.4777 -0.2980  0.6441
 1008SOL     OW 3647   0.805   1.206   0.699  1.4755  0.0060 -0.0150
 1008SOL    HW1 3648   0.755   1.136   0.647 -0.3027  1.8964 -0.9855
 1008SOL    HW2 3649   0.825   1.284   0.639 -1.4269  2.6910  2.1674
 1009SOL     OW 3650   2.236   4.749   0.759 -0.4773  0.4705  0.4855
 1009SOL    HW1 3651   2.250   4.746   0.858  2.1274  2.1075  0.2505
 1009SOL    HW2 3652   2.238   4.844   0.728 -1.5806  0.0112 -1.1406
 1010SOL     OW 3653   4.060   3.316   3.794 -0.3494  0.6775 -0.6099
 1010SOL    HW1 3654   4.156   3.343   3.803  0.5563 -1.3066 -2.9538
 1010SOL    HW2 3655   4.004   3.395   3.770  0.8144  1.7478  0.1237
 1011SOL     OW 3656   4.526   2.486   2.695  0.7853 -0.4755 -0.0542
 1011SOL    HW1 3657   4.480   2.460   2.610  1.0553 -0.9992 -0.0493
 1011SOL    HW2 3658   4.480   2.565   2.735  0.6226 -0.2556 -0.6584
 1012SOL     OW 3659   1.020   4.010   0.642 -0.8526  0.4867 -0.0734
 1012SOL    HW1 3660   1.053   4.053   0.559  0.6547  1.9093  1.2021
 1012SOL    HW2 3661   0.940   3.953   0.621 -0.8545  1.2532 -2.3564
 1013SOL     OW 3662   0.000   4.288   0.264 -0.6343 -0.1111  0.3420
 1013SOL    HW1 3663  -0.094   4.321   0.271 -0.0425  2.1794 -1.1876
 1013SOL    HW2 3664   0.063   4.360   0.292  0.7003 -1.7434  1.7355
 1014SOL     OW 3665   1.394   0.091   0.205 -0.2479 -0.1001 -0.4859
 1014SOL    HW1 3666   1.468   0.082   0.138 -0.5931 -0.9980 -0.7552
 1014SOL    HW2 3667   1.307   0.100   0.157 -0.3820  0.3836 -0.1611
 1015SOL     OW 3668   1.441   2.706   4.765  0.1658  0.2550  0.5146
 1015SOL    HW1 3669   1.449   2.695   4.864 -1.1735 -3.9214  0.3574
 1015SOL    HW2 3670   1.495   2.635   4.718  0.5220  1.9184 -1.7795
 1016SOL     OW 3671   0.039   3.764   2.799  0.3639 -0.1215  0.1599
 1016SOL    HW1 3672  -0.050   3.730   2.766  2.0221 -1.1109 -3.9013
 1016SOL    HW2 3673   0.104   3.688   2.802  1.5471  0.8986  1.2867
 1017SOL     OW 3674   3.680   1.878   3.836  0.8087 -0.4279 -0.1349
 1017SOL    HW1 3675   3.591   1.848   3.800  0.5092 -1.4899  1.3813
 1017SOL    HW2 3676   3.666   1.924   3.923  1.6649  0.5118 -0.4758
 1018SOL     OW 3677   1.061   2.565   3.469  0.7012 -0.7442 -0.7467
 1018SOL    HW1 3678   0.979   2.622   3.463  1.9294  1.1907 -0.4031
 1018SOL    HW2 3679   1.129   2.612   3.527  1.6547 -2.7884 -0.1342
 1019SOL     OW 3680   1.619   3.714   4.572  0.4187 -1.2365 -0.3169
 1019SOL    HW1 3681   1.519   3.717   4.564  0.5227 -1.4866 -2.1017
 1019SOL    HW2 3682   1.644   3.720   4.668 -1.4225 -3.7779  0.4514
 1020SOL     OW 3683   0.937   4.974   3.526  0.9133 -0.1250 -0.1461
 1020SOL    HW1 3684   0.976   5.066   3.522 -0.4237  0.4559 -0.4983
 1020SOL    HW2 3685   0.980   4.923   3.601 -0.3460  1.7899  2.0206
 1021SOL     OW 3686   1.048   2.950   3.262 -0.0213  0.4251  0.1196
 1021SOL    HW1 3687   0.951   2.924   3.256  0.2411 -0.4545 -0.6179
 1021SOL    HW2 3688   1.089   2.946   3.171  0.2697  2.6839  0.0928
 1022SOL     OW 3689   2.140   3.302   0.634 -0.1829  0.6351  0.2072
 1022SOL    HW1 3690   2.076   3.300   0.710 -1.8548  1.1719 -1.1059
 1022SOL    HW2 3691   2.199   3.383   0.642  0.6425 -0.0605  1.6175
 1023SOL     OW 3692   3.430   1.922   4.988 -0.5887  0.1947 -0.2903
 1023SOL    HW1 3693   3.480   2.009   4.983 -1.0989  0.4276 -2.0891
 1023SOL    HW2 3694   3.425   1.881   4.897  0.3538 -2.1676  0.6349
 1024SOL     OW 3695   1.739   3.007   1.792  0.1661  0.1542 -0.1923
 1024SOL    HW1 3696   1.818   3.033   1.847 -0.9986  1.2380  1.0634
 1024SOL    HW2 3697   1.743   3.053   1.703  1.1133 -0.0721 -0.2689
 1025SOL     OW 3698   0.230   3.660   0.630  0.9151 -0.0465 -0.3872
 1025SOL    HW1 3699   0.293   3.582   0.637  0.9194 -0.3541 -2.8608
 1025SOL    HW2 3700   0.149   3.632   0.580  0.4380  1.2920 -0.3912
 1026SOL     OW 3701   4.413   3.051   3.707 -0.0238 -0.4766  0.7377
 1026SOL    HW1 3702   4.419   3.125   3.640  1.8148  0.8261  2.2462
 1026SOL    HW2 3703   4.418   2.963   3.659  1.9825  0.4099 -0.8312
 1027SOL     OW 3704   2.876   3.199   0.561  0.6375  0.5003  0.5057
 1027SOL    HW1 3705   2.927   3.115   0.543  0.2562  0.1082  1.1855
 1027SOL    HW2 3706   2.832   3.192   0.651  0.1083  1.1823  0.3088
 1028SOL     OW 3707   0.938   3.531   0.751 -0.6396 -0.7146 -0.2012
 1028SOL    HW1 3708   0.999   3.453   0.742  1.4629  0.9568 -1.4599
 1028SOL    HW2 3709   0.951   3.574   0.841  0.4420 -0.1053 -0.6260
 1029SOL     OW 3710   4.836   2.886   4.794 -0.4763 -0.7888  1.2584
 1029SOL    HW1 3711   4.746   2.916   4.825  0.9024  0.3416  4.6144
 1029SOL    HW2 3712   4.830   2.793   4.758 -3.1240 -0.2961  0.2432
 1030SOL     OW 3713   4.387   1.643   1.379 -0.7521 -0.0651  0.2630
 1030SOL    HW1 3714   4.312   1.578   1.369  0.4173 -1.4410  0.0368
 1030SOL    HW2 3715   4.446   1.638   1.299  0.7118 -0.5520  1.3215
 1031SOL     OW 3716   2.324   4.194   4.391  1.5575  0.2922  0.1084
 1031SOL    HW1 3717   2.239   4.169   4.346  1.8787  1.5727 -1.2643
 1031SOL    HW2 3718   2.324   4.157   4.484 -2.3584  3.5736  1.7558
 1032SOL     OW 3719   3.289   2.227   3.699 -0.4841  0.6161 -0.5969
 1032SOL    HW1 3720   3.252   2.205   3.609 -0.5415 -1.3488 -0.1400
 1032SOL    HW2 3721   3.213   2.249   3.762 -0.4776  1.5290 -0.9009
 1033SOL     OW 3722   2.778   2.004   4.304 -0.6050  0.1495 -0.5711
 1033SOL    HW1 3723   2.679   2.018   4.312 -1.0312 -0.9629 -3.0088
 1033SOL    HW2 3724   2.801   1.985   4.208  1.3879 -3.7628  0.4658
 1034SOL     OW 3725   1.270   4.564   2.341 -0.8699 -1.0464 -1.2639
 1034SOL    HW1 3726   1.332   4.639   2.315 -2.7737  0.7224 -0.9780
 1034SOL    HW2 3727   1.206   4.547   2.266  0.5273 -3.5941 -1.9936
 1035SOL     OW 3728   2.782   0.956   0.777  0.1546 -0.0059 -0.0058
 1035SOL    HW1 3729   2.788   0.909   0.689  0.8348  2.8439 -1.6033
 1035SOL    HW2 3730   2.710   1.027   0.772  1.9541  1.9777  0.7493
 1036SOL     OW 3731   3.874   4.184   1.092  1.3300  0.0866 -0.0832
 1036SOL    HW1 3732   3.815   4.106   1.108  1.6494  0.0992  1.2221
 1036SOL    HW2 3733   3.827   4.250   1.032  1.1297 -1.1419 -1.3360
 1037SOL     OW 3734   3.177   4.042   3.336  0.1417  0.2737  0.2414
 1037SOL    HW1 3735   3.133   3.966   3.384 -1.8155  0.9548 -0.4031
 1037SOL    HW2 3736   3.169   4.125   3.391 -0.6507  0.7064 -0.5127
 1038SOL     OW 3737   3.340   1.003   1.718  0.5045 -0.6518 -0.3330
 1038SOL    HW1 3738   3.396   1.023   1.638 -2.6031  0.7226 -2.3635
 1038SOL    HW2 3739   3.264   0.944   1.692  0.3559 -1.6491  2.0661
 1039SOL     OW 3740   2.477   0.289   4.324 -0.1527 -0.7129 -0.2490
 1039SOL    HW1 3741   2.391   0.335   4.303 -0.0116 -0.3508 -0.0498
 1039SOL    HW2 3742   2.549   0.357   4.337  0.2800 -1.0333 -0.9101
 1040SOL     OW 3743   0.223   1.359   4.206  0.5414  0.5669  0.9804
 1040SOL    HW1 3744   0.252   1.346   4.301  1.2133 -0.4486  0.6617
 1040SOL    HW2 3745   0.300   1.337   4.145 -0.2599 -0.0571  0.1733
 1041SOL     OW 3746   1.920   4.132   0.736 -0.8737 -0.2271 -0.0744
 1041SOL    HW1 3747   1.871   4.209   0.696 -1.0897 -0.0945  0.4348
 1041SOL    HW2 3748   1.961   4.159   0.823  0.1906 -0.3114 -0.5259
 1042SOL     OW 3749   4.404   1.913   0.207 -0.1643  0.2760  0.5292
 1042SOL    HW1 3750   4.411   1.998   0.259 -0.7115  0.8895 -0.3886
 1042SOL    HW2 3751   4.488   1.860   0.219  0.9663  1.7922 -0.3657
 1043SOL     OW 3752   4.337   4.619   1.056 -0.6013  0.5056 -0.3832
 1043SOL    HW1 3753   4.263   4.582   1.112  0.8185  2.2259  2.9022
 1043SOL    HW2 3754   4.375   4.546   0.999 -1.7378 -1.6176  1.4177
 1044SOL     OW 3755   2.224   3.791   0.304 -0.6723 -0.0763  0.1251
 1044SOL    HW1 3756   2.139   3.835   0.332  0.2386 -0.0316  3.1877
 1044SOL    HW2 3757   2.210   3.693   0.294 -1.5778  0.2051 -1.8717
 1045SOL     OW 3758   2.672   4.402   1.794 -0.8216 -0.0002 -0.6804
 1045SOL    HW1 3759   2.697   4.429   1.887 -0.1278 -0.1562 -0.8197
 1045SOL    HW2 3760   2.739   4.440   1.730  1.3519 -3.5418 -0.7482
 1046SOL     OW 3761   1.310   2.810   3.359  0.6570 -0.5798 -0.0914
 1046SOL    HW1 3762   1.280   2.773   3.447  1.8202  0.0804  0.6048
 1046SOL    HW2 3763   1.247   2.883   3.330  0.7455 -0.2200  0.6139
 1047SOL     OW 3764   4.941   4.221   3.087 -0.1054  0.3327  0.2074
 1047SOL    HW1 3765   4.911   4.240   2.994  0.3201  1.4410  0.2808
 1047SOL    HW2 3766   4.942   4.122   3.102 -1.3218  0.1821 -0.5674
 1048SOL     OW 3767   0.316   1.332   3.824  0.1469  0.2292 -0.3328
 1048SOL    HW1 3768   0.332   1.418   3.872  2.3806 -0.6899  0.7374
 1048SOL    HW2 3769   0.396   1.310   3.768  1.5169 -2.9925  2.5271
 1049SOL     OW 3770   4.287   4.632   0.319 -0.5878  0.3257  0.1492
 1049SOL    HW1 3771   4.204   4.648   0.372 -0.5746 -0.6917  0.4863
 1049SOL    HW2 3772   4.318   4.719   0.280 -1.7403  0.7398  0.1107
 1050SOL     OW 3773   1.892   3.314   2.646 -0.5959  0.5118 -0.2530
 1050SOL    HW1 3774   1.945   3.365   2.578  3.4068 -1.2337  1.2654
 1050SOL    HW2 3775   1.938   3.319   2.735 -2.2898 -2.2635  0.9090
 1051SOL     OW 3776   2.809   0.155   1.902  0.1496 -0.4852  0.5715
 1051SOL    HW1 3777   2.744   0.083   1.877  0.8641 -0.9409 -0.0142
 1051SOL    HW2 3778   2.889   0.114   1.944  1.0064 -0.1433 -0.6779
 1052SOL     OW 3779   0.088   2.496   3.947  0.3402 -0.8354  0.6087
 1052SOL    HW1 3780   0.013   2.505   3.882  0.4329 -0.1086  0.5874
 1052SOL    HW2 3781   0.062   2.537   4.034  1.0855  0.4247  0.2681
 1053SOL     OW 3782   0.016   1.501   0.335  0.7674  0.0753  0.6099
 1053SOL    HW1 3783   0.054   1.526   0.424 -0.9000  0.5534  1.2243
 1053SOL    HW2 3784  -0.010   1.583   0.285 -0.7173 -0.2648  0.7911
 1054SOL     OW 3785   1.899   2.647   3.757 -0.4908 -0.2823  0.5458
 1054SOL    HW1 3786   1.918   2.557   3.796  1.9464 -0.0401  0.1201
 1054SOL    HW2 3787   1.922   2.718   3.823 -3.9743  0.1116  1.5085
 1055SOL     OW 3788   4.191   1.485   1.255  0.1986  0.4404 -0.0906
 1055SOL    HW1 3789   4.112   1.430   1.230  0.6482 -0.6990  0.8817
 1055SOL    HW2 3790   4.241   1.512   1.173  1.2439 -2.5646 -0.5757
 1056SOL     OW 3791   1.339   2.559   4.472 -0.3135 -0.9747  0.3031
 1056SOL    HW1 3792   1.392   2.506   4.538 -0.8190 -0.9936  0.7038
 1056SOL    HW2 3793   1.246   2.571   4.507 -0.2949 -0.0961  0.0668
 1057SOL     OW 3794   3.190   4.780   0.421 -0.3643 -0.2457 -0.2736
 1057SOL    HW1 3795   3.274   4.773   0.367 -1.0546 -0.7525 -1.3067
 1057SOL    HW2 3796   3.114   4.739   0.371 -1.0778 -0.5493  1.0056
 1058SOL     OW 3797   4.783   2.313   4.000 -0.0675 -0.0457  0.4691
 1058SOL    HW1 3798   4.725   2.303   4.081 -1.8882  0.8242 -0.6533
 1058SOL    HW2 3799   4.748   2.388   3.944  1.4701 -0.2842 -0.8565
 1059SOL     OW 3800   4.111   1.849   1.260  0.5009 -0.5988  0.0318
 1059SOL    HW1 3801   4.071   1.795   1.186 -0.0608 -0.6533  0.3656
 1059SOL    HW2 3802   4.042   1.912   1.297  2.0218  2.9053 -2.5960
 1060SOL     OW 3803   0.567   3.453   1.215 -0.1808 -0.5885 -0.2729
 1060SOL    HW1 3804   0.641   3.396   1.181  0.7831 -0.4705  1.5161
 1060SOL    HW2 3805   0.537   3.515   1.143  2.1933  0.1219 -0.7255
 1061SOL     OW 3806   0.465   4.391   3.036  0.6902 -0.1996 -0.0540
 1061SOL    HW1 3807   0.499   4.474   3.079  0.9031 -0.3923  0.1442
 1061SOL    HW2 3808   0.425   4.330   3.105 -0.4300  0.1988 -0.3223
 1062SOL     OW 3809   4.666   1.167   3.398 -0.0476  0.7144  0.2093
 1062SOL    HW1 3810   4.625   1.214   3.319 -0.1630  1.9309  0.9662
 1062SOL    HW2 3811   4.731   1.228   3.443  1.7078 -0.7402 -0.2170
 1063SOL     OW 3812   3.595   3.154   4.246  0.8183 -0.9768 -0.4594
 1063SOL    HW1 3813   3.512   3.169   4.300 -0.9700 -2.3230 -2.6610
 1063SOL    HW2 3814   3.665   3.219   4.274 -1.5482  1.3916  0.3236
 1064SOL     OW 3815   0.383   3.378   1.760 -0.1346 -0.2464  0.2815
 1064SOL    HW1 3816   0.474   3.382   1.802  0.6715  0.6056 -1.4182
 1064SOL    HW2 3817   0.393   3.356   1.662 -1.8219 -0.8244  0.2037
 1065SOL     OW 3818   0.871   2.936   4.540  0.1652  0.3444 -0.2889
 1065SOL    HW1 3819   0.922   3.009   4.584 -2.3625  1.4037  1.1268
 1065SOL    HW2 3820   0.913   2.913   4.452  3.0437  0.9823  0.8422
 1066SOL     OW 3821   4.979   2.827   1.170 -0.1034  0.2514 -0.2872
 1066SOL    HW1 3822   5.004   2.895   1.240  0.0641 -1.4474  1.3816
 1066SOL    HW2 3823   4.887   2.846   1.137 -0.1813  1.0946  0.3782
 1067SOL     OW 3824   3.268   0.460   4.174 -1.2275  0.0690  0.0073
 1067SOL    HW1 3825   3.254   0.498   4.082 -0.6245 -2.3778 -1.1686
 1067SOL    HW2 3826   3.213   0.377   4.184  0.6563 -1.1240  0.9075
 1068SOL     OW 3827   0.603   0.222   3.051 -0.1233 -0.6965 -0.1359
 1068SOL    HW1 3828   0.624   0.124   3.055  2.4049 -0.4376 -3.0891
 1068SOL    HW2 3829   0.553   0.249   3.133  0.7012 -4.0666  1.6580
 1069SOL     OW 3830   4.178   2.140   1.488 -0.3268 -1.0394  0.4857
 1069SOL    HW1 3831   4.133   2.200   1.421 -2.7920 -1.8294  1.3415
 1069SOL    HW2 3832   4.117   2.064   1.511  0.1205 -0.4677  4.1130
 1070SOL     OW 3833   3.395   1.217   1.449  0.3142 -0.2604 -0.0012
 1070SOL    HW1 3834   3.433   1.124   1.445  1.6869  0.3191 -1.3738
 1070SOL    HW2 3835   3.449   1.278   1.392 -1.8361  0.9625 -0.8638
 1071SOL     OW 3836   0.376   1.160   1.020  0.5010  0.2944  1.0184
 1071SOL    HW1 3837   0.277   1.168   1.031  0.2054 -0.9316 -0.4068
 1071SOL    HW2 3838   0.411   1.242   0.974  0.0497  0.4379  0.9251
 1072SOL     OW 3839   1.297   3.739   4.990 -0.0118  0.5973  0.4115
 1072SOL    HW1 3840   1.380   3.685   5.000 -0.2595  0.2232  0.4986
 1072SOL    HW2 3841   1.279   3.754   4.893 -0.7136 -0.7266  0.3028
 1073SOL     OW 3842   2.815   1.936   0.734  0.3848  0.3347 -0.5065
 1073SOL    HW1 3843   2.874   1.967   0.808  0.3189  2.0444 -1.1187
 1073SOL    HW2 3844   2.774   1.848   0.759 -0.7148  1.4637  2.1058
 1074SOL     OW 3845   3.652   2.719   4.952 -0.3498 -0.3558  0.3204
 1074SOL    HW1 3846   3.623   2.635   4.999 -2.0713  0.7832  1.3982
 1074SOL    HW2 3847   3.622   2.715   4.856 -0.6838 -0.8546  0.4414
 1075SOL     OW 3848   1.681   0.784   2.825  0.8690 -0.6150  0.5763
 1075SOL    HW1 3849   1.640   0.863   2.781  0.2327 -1.8650 -1.1403
 1075SOL    HW2 3850   1.716   0.812   2.915  2.4388  2.0785 -0.7259
 1076SOL     OW 3851   4.260   1.467   2.953 -0.3610  0.1599 -0.2931
 1076SOL    HW1 3852   4.293   1.373   2.942 -2.8414 -0.8145 -0.0615
 1076SOL    HW2 3853   4.172   1.477   2.906  0.4656  2.7949 -1.4675
 1077SOL     OW 3854   3.242   0.208   3.198 -0.6626 -0.7232  0.4755
 1077SOL    HW1 3855   3.171   0.147   3.231  0.7490 -2.4638  0.4863
 1077SOL    HW2 3856   3.323   0.201   3.257  0.3378 -0.5817 -0.8159
 1078SOL     OW 3857   2.816   4.992   4.387  0.0571 -0.8845 -0.2595
 1078SOL    HW1 3858   2.897   4.937   4.407  0.2059 -0.6022 -0.0712
 1078SOL    HW2 3859   2.834   5.087   4.414 -0.2253 -0.7630 -0.5023
 1079SOL     OW 3860   0.507   1.865   4.284  0.0550  0.3054  0.7494
 1079SOL    HW1 3861   0.523   1.960   4.257  0.9781  0.2439  1.0426
 1079SOL    HW2 3862   0.504   1.807   4.203  1.6724  0.2850  0.6866
 1080SOL     OW 3863   1.511   1.965   4.034 -0.2630 -0.1117 -0.6620
 1080SOL    HW1 3864   1.453   2.035   3.992 -2.9302 -0.1598  2.5518
 1080SOL    HW2 3865   1.459   1.881   4.046  0.9042 -0.6455  1.0302
 1081SOL     OW 3866   4.770   3.548   1.423 -0.7445  0.3812 -0.8004
 1081SOL    HW1 3867   4.864   3.515   1.411  0.1091  1.8872  1.3593
 1081SOL    HW2 3868   4.707   3.480   1.384  1.1221 -1.5535 -0.6569
 1082SOL     OW 3869   2.905   1.347   0.025  0.6313  0.0191  0.9753
 1082SOL    HW1 3870   2.929   1.315  -0.067  0.4160 -0.3384  1.0412
 1082SOL    HW2 3871   2.894   1.446   0.024  1.3336  0.1035  0.7724
 1083SOL     OW 3872   2.566   1.885   2.047  0.3863 -0.2117  0.7316
 1083SOL    HW1 3873   2.659   1.853   2.031 -0.8759 -3.6850 -0.7341
 1083SOL    HW2 3874   2.564   1.946   2.126  3.7421 -0.4884  1.1680
 1084SOL     OW 3875   1.372   3.761   4.539  0.3448 -0.0285 -0.2607
 1084SOL    HW1 3876   1.371   3.798   4.632  1.8417  0.3117 -0.3495
 1084SOL    HW2 3877   1.281   3.768   4.499 -1.2052 -3.1513  2.2747
 1085SOL     OW 3878   1.809   0.833   0.428 -0.7370  0.2080  0.1116
 1085SOL    HW1 3879   1.800   0.737   0.400  2.5670 -0.0731 -0.3192
 1085SOL    HW2 3880   1.789   0.893   0.351 -2.4307 -0.0795  0.2783
 1086SOL     OW 3881   0.259   2.270   4.803  0.0915 -0.3258  0.4218
 1086SOL    HW1 3882   0.343   2.231   4.842 -0.5069  0.1457  2.2676
 1086SOL    HW2 3883   0.242   2.359   4.844  0.0254  0.7723 -1.8284
 1087SOL     OW 3884   1.979   2.261   2.039  0.9575  0.6998 -0.6533
 1087SOL    HW1 3885   1.964   2.168   2.070  0.3327 -0.1041 -3.1699
 1087SOL    HW2 3886   2.075   2.273   2.013  0.5384 -0.1254 -2.8058
 1088SOL     OW 3887   0.476   1.404   3.231 -0.2821  0.0357  0.0287
 1088SOL    HW1 3888   0.484   1.368   3.138  0.6444 -2.1402  0.8702
 1088SOL    HW2 3889   0.451   1.500   3.228 -3.2019 -0.6492 -2.4318
 1089SOL     OW 3890   2.554   2.092   3.045 -0.0516  0.1047 -0.0349
 1089SOL    HW1 3891   2.555   1.999   3.083 -0.9330  0.4721  0.9563
 1089SOL    HW2 3892   2.529   2.157   3.117 -3.3468  0.6840 -1.5351
 1090SOL     OW 3893   0.836   2.221   4.638 -0.7279  0.5795  0.4924
 1090SOL    HW1 3894   0.919   2.221   4.693  0.1333 -0.3274 -0.7618
 1090SOL    HW2 3895   0.775   2.148   4.668 -0.6083  0.5821  0.7378
 1091SOL     OW 3896   4.615   0.220   3.944  0.0149 -0.8166 -0.4572
 1091SOL    HW1 3897   4.572   0.283   4.008  2.7037  1.7538 -0.9483
 1091SOL    HW2 3898   4.631   0.132   3.989  0.2800  0.3310  1.8358
 1092SOL     OW 3899   2.328   0.502   3.502  0.5442 -0.4602  0.0254
 1092SOL    HW1 3900   2.358   0.544   3.587  2.2010 -1.0178 -0.2455
 1092SOL    HW2 3901   2.353   0.561   3.425  0.2953 -0.6159 -0.1792
 1093SOL     OW 3902   3.753   1.671   1.070 -0.2918  0.3264  0.0129
 1093SOL    HW1 3903   3.813   1.668   1.149 -1.4133 -1.8189  0.8478
 1093SOL    HW2 3904   3.798   1.722   0.996  1.9659 -0.0815  1.0282
 1094SOL     OW 3905   0.624   3.555   2.482 -0.6248 -0.3542 -0.6018
 1094SOL    HW1 3906   0.715   3.513   2.479 -0.4463 -0.3418  2.1875
 1094SOL    HW2 3907   0.633   3.651   2.508 -1.3761 -0.0408 -1.4707
 1095SOL     OW 3908   3.167   2.913   4.610  0.0363 -0.0503 -0.6602
 1095SOL    HW1 3909   3.211   2.935   4.524 -0.3255  0.4314 -0.7231
 1095SOL    HW2 3910   3.227   2.939   4.686 -0.4045  1.2318 -0.7285
 1096SOL     OW 3911   3.326   1.223   3.922  0.0318 -1.2671 -0.4197
 1096SOL    HW1 3912   3.411   1.198   3.875  1.4080 -2.8984  2.6884
 1096SOL    HW2 3913   3.308   1.159   3.996 -1.1908  1.8526  2.2640
 1097SOL     OW 3914   0.033   3.176   0.456 -0.0950  0.1177  0.2960
 1097SOL    HW1 3915  -0.010   3.215   0.537  0.1955 -1.7475  1.4187
 1097SOL    HW2 3916   0.119   3.223   0.437  0.3677 -0.1125  1.7362
 1098SOL     OW 3917   4.894   0.577   1.343 -0.5369 -0.7612  0.3975
 1098SOL    HW1 3918   4.994   0.577   1.343 -0.4617  0.4979 -2.3545
 1098SOL    HW2 3919   4.861   0.509   1.409  2.0725 -0.4713  2.1679
 1099SOL     OW 3920   2.783   2.958   0.271  0.4867  0.1974  0.6928
 1099SOL    HW1 3921   2.756   3.041   0.322  0.4145  0.7895 -0.2805
 1099SOL    HW2 3922   2.772   2.975   0.173  0.0160 -1.1429  0.5026
 1100SOL     OW 3923   4.481   3.038   1.354  0.7754  0.4888  0.2296
 1100SOL    HW1 3924   4.522   3.125   1.328  2.0966 -0.6305 -1.7332
 1100SOL    HW2 3925   4.534   2.998   1.429  0.1735  1.3442  1.1243
 1101SOL     OW 3926   2.048   0.127   2.641  0.6715 -0.6563 -0.1691
 1101SOL    HW1 3927   2.081   0.175   2.722 -2.0152 -0.6391  1.0171
 1101SOL    HW2 3928   1.953   0.151   2.624  0.3985 -2.6326 -1.8340
 1102SOL     OW 3929   3.752   4.366   3.714 -0.9853  0.4285  0.2465
 1102SOL    HW1 3930   3.817   4.306   3.761  0.0520 -0.0813 -1.7521
 1102SOL    HW2 3931   3.757   4.458   3.753  1.0612  0.4369  0.0614
 1103SOL     OW 3932   0.446   2.618   1.169  0.3036  0.0175  0.6309
 1103SOL    HW1 3933   0.493   2.554   1.229 -2.4275 -0.8899  1.9882
 1103SOL    HW2 3934   0.347   2.600   1.172 -0.2154  1.8081 -1.9764
 1104SOL     OW 3935   1.945   2.295   0.154  0.1081  0.5558  0.8054
 1104SOL    HW1 3936   2.019   2.361   0.169  1.8396 -1.3441  1.0687
 1104SOL    HW2 3937   1.976   2.204   0.182 -1.7095 -0.6167 -0.7735
 1105SOL     OW 3938   1.797   4.375   2.946 -0.1019 -0.2039 -0.1635
 1105SOL    HW1 3939   1.895   4.376   2.965 -0.1443 -1.0593  0.1536
 1105SOL    HW2 3940   1.782   4.365   2.847  0.1680 -2.3965 -0.0308
 1106SOL     OW 3941   2.837   0.815   0.532  0.0024 -0.8116  0.1585
 1106SOL    HW1 3942   2.804   0.738   0.478  0.2430 -0.9634  0.2267
 1106SOL    HW2 3943   2.931   0.797   0.562  0.5406  0.0817 -0.9283
 1107SOL     OW 3944   3.182   1.438   2.339  0.5003 -0.1639  0.2944
 1107SOL    HW1 3945   3.190   1.345   2.375  1.9503 -0.9196 -1.7716
 1107SOL    HW2 3946   3.270   1.466   2.299 -0.2947  1.5732 -0.3478
 1108SOL     OW 3947   2.310   3.282   2.676  0.5792  0.5672  0.9481
 1108SOL    HW1 3948   2.404   3.250   2.680  0.2536 -0.6367 -0.1817
 1108SOL    HW2 3949   2.256   3.219   2.620 -0.6331  1.8800  0.5831
 1109SOL     OW 3950   1.654   3.337   1.683  0.1693 -0.0155  0.0152
 1109SOL    HW1 3951   1.609   3.425   1.697  0.9277  0.3338  0.2875
 1109SOL    HW2 3952   1.713   3.317   1.761 -1.9723 -2.0115  1.2731
 1110SOL     OW 3953   0.568   4.021   0.211 -0.2871  0.0702  0.5470
 1110SOL    HW1 3954   0.557   3.940   0.267 -2.5864 -1.5964 -2.0419
 1110SOL    HW2 3955   0.504   4.092   0.241  0.1154  0.0767  1.3975
 1111SOL     OW 3956   3.265   4.004   0.899  0.0804  0.6716  0.3894
 1111SOL    HW1 3957   3.265   3.937   0.825  0.6149 -0.0968  1.0667
 1111SOL    HW2 3958   3.190   3.984   0.962  1.5424 -0.7135  1.8025
 1112SOL     OW 3959   1.646   1.846   1.624  0.0761 -0.6006 -0.1538
 1112SOL    HW1 3960   1.555   1.883   1.643  1.4316  0.8350  5.5736
 1112SOL    HW2 3961   1.657   1.759   1.671  1.6346 -0.8631 -0.9480
 1113SOL     OW 3962   3.465   0.903   0.415  0.5166 -0.1576 -0.3914
 1113SOL    HW1 3963   3.517   0.891   0.330  0.0668 -2.9361 -0.3613
 1113SOL    HW2 3964   3.378   0.854   0.407  0.2416 -0.0248  1.5176
 1114SOL     OW 3965   2.374   3.267   0.805 -0.9864 -0.2589 -0.6110
 1114SOL    HW1 3966   2.277   3.257   0.826 -1.2396 -0.2676 -1.7258
 1114SOL    HW2 3967   2.411   3.178   0.776 -1.1792  0.1546 -2.2464
 1115SOL     OW 3968   2.768   2.527   2.030  0.1480  0.5791  0.3815
 1115SOL    HW1 3969   2.693   2.514   1.964  2.3212 -1.0471 -1.9407
 1115SOL    HW2 3970   2.852   2.489   1.993  1.4338 -1.1334  4.4559
 1116SOL     OW 3971   0.779   3.793   4.049 -0.2322  0.5933 -0.2746
 1116SOL    HW1 3972   0.803   3.888   4.028  0.6922  0.3485 -0.3450
 1116SOL    HW2 3973   0.861   3.736   4.047 -0.3968  0.1674  1.9322
 1117SOL     OW 3974   3.724   3.026   4.903  0.0442  0.7823  0.7121
 1117SOL    HW1 3975   3.745   2.957   4.833 -1.5718  0.7627  0.1960
 1117SOL    HW2 3976   3.641   2.999   4.952  0.5607  1.3372  1.9340
 1118SOL     OW 3977   1.915   2.552   1.830 -0.5452 -0.2320  0.1220
 1118SOL    HW1 3978   1.949   2.501   1.909  0.5504  0.0571 -0.1488
 1118SOL    HW2 3979   1.868   2.635   1.862 -0.0467 -0.0783  0.4708
 1119SOL     OW 3980   3.457   1.663   1.514 -0.1077  0.2954  0.1034
 1119SOL    HW1 3981   3.373   1.664   1.460 -1.9709  1.5517  2.7675
 1119SOL    HW2 3982   3.452   1.590   1.582 -0.6952  2.3105  2.4121
 1120SOL     OW 3983   4.126   0.498   1.229  0.3663 -0.6756 -0.0562
 1120SOL    HW1 3984   4.178   0.517   1.146  0.6622 -1.4697 -0.0596
 1120SOL    HW2 3985   4.184   0.449   1.295 -0.7213 -2.7858 -0.5851
 1121SOL     OW 3986   4.231   0.810   3.845 -0.7614  0.2603 -0.5891
 1121SOL    HW1 3987   4.152   0.839   3.898  0.7905  0.9359  1.5049
 1121SOL    HW2 3988   4.202   0.745   3.774 -3.7623  3.5980 -2.7605
 1122SOL     OW 3989   2.085   4.938   4.606 -0.0210 -0.5268  0.4160
 1122SOL    HW1 3990   2.000   4.910   4.561  0.3985 -2.2389  0.6015
 1122SOL    HW2 3991   2.158   4.947   4.538  0.6441 -3.2379  0.6560
 1123SOL     OW 3992   1.552   4.812   4.004 -0.7403  0.5742  0.8566
 1123SOL    HW1 3993   1.566   4.714   4.011 -1.3883  0.1309 -2.2841
 1123SOL    HW2 3994   1.479   4.840   4.065 -3.7660 -1.8344 -1.3281
 1124SOL     OW 3995   1.427   1.859   4.922 -1.2380  0.7566 -0.3949
 1124SOL    HW1 3996   1.483   1.835   5.002 -0.7796  1.4190 -0.5114
 1124SOL    HW2 3997   1.472   1.932   4.870 -0.0852 -1.5493 -2.8754
 1125SOL     OW 3998   0.059   4.838   0.723 -0.4841 -0.0673  0.5880
 1125SOL    HW1 3999   0.152   4.809   0.703 -0.5983 -1.2687  1.6384
 1125SOL    HW2 4000   0.058   4.891   0.808 -0.6624  0.6229  0.1629
 1126SOL     OW 4001   1.868   3.609   3.711  0.3571 -0.6131 -0.3753
 1126SOL    HW1 4002   1.834   3.607   3.804  0.9461 -0.0786 -0.1414
 1126SOL    HW2 4003   1.870   3.516   3.674 -0.2575 -0.7736  0.0018
 1127SOL     OW 4004   0.549   1.724   0.916 -0.9497  0.7515  0.1128
 1127SOL    HW1 4005   0.541   1.625   0.908  2.2011  0.3704  0.5119
 1127SOL    HW2 4006   0.459   1.763   0.937 -2.2530 -1.9864  0.0655
 1128SOL     OW 4007   3.749   4.911   4.126 -0.3903 -0.9142 -0.1001
 1128SOL    HW1 4008   3.778   4.968   4.048 -2.3437 -2.3562 -2.0201
 1128SOL    HW2 4009   3.804   4.828   4.129  2.3597  0.7971  2.6128
 1129SOL     OW 4010   0.045   4.655   2.678  0.1213  0.0234  0.2321
 1129SOL    HW1 4011  -0.047   4.654   2.638 -0.8468  1.9242  2.1841
 1129SOL    HW2 4012   0.052   4.583   2.747 -1.2962  2.0637  2.6872
 1130SOL     OW 4013   3.230   0.885   3.235 -0.0821  0.6467  0.0685
 1130SOL    HW1 4014   3.274   0.956   3.181  0.3112 -1.8606 -3.2219
 1130SOL    HW2 4015   3.232   0.911   3.332  0.9243  4.5246 -0.7998
 1131SOL     OW 4016   1.195   2.147   2.605  0.0985  0.2481 -0.5222
 1131SOL    HW1 4017   1.132   2.069   2.603  1.4934 -0.9234 -0.7473
 1131SOL    HW2 4018   1.259   2.140   2.528  3.2975 -1.0915  2.0153
 1132SOL     OW 4019   1.899   3.229   0.257 -0.9382  1.4337 -0.2074
 1132SOL    HW1 4020   1.982   3.185   0.225 -0.7649  1.1349  0.6270
 1132SOL    HW2 4021   1.877   3.196   0.349 -1.2590  2.4712  0.1068
 1133SOL     OW 4022   2.638   2.135   3.969 -0.0002  0.2233 -0.0999
 1133SOL    HW1 4023   2.716   2.112   3.911  0.2241  1.6544 -0.3917
 1133SOL    HW2 4024   2.571   2.188   3.917 -0.1455  0.8815  0.7254
 1134SOL     OW 4025   0.830   3.279   1.780 -0.1542 -0.1491 -0.1865
 1134SOL    HW1 4026   0.882   3.312   1.859  1.1238  0.2901 -1.1790
 1134SOL    HW2 4027   0.780   3.355   1.738  0.1593 -0.1262 -0.5242
 1135SOL     OW 4028   2.288   3.500   2.411 -0.3519 -0.9099  0.0697
 1135SOL    HW1 4029   2.380   3.518   2.444 -0.8635 -1.6101  2.0519
 1135SOL    HW2 4030   2.279   3.403   2.390 -0.7195 -0.8971  0.1641
 1136SOL     OW 4031   0.931   2.095   2.472  0.2762  0.3574  0.0073
 1136SOL    HW1 4032   0.884   2.182   2.487 -0.3627 -0.2621  1.7915
 1136SOL    HW2 4033   0.893   2.050   2.391  1.3971  2.2186 -1.6321
 1137SOL     OW 4034   1.573   4.554   0.045  0.2673 -0.6975  0.6989
 1137SOL    HW1 4035   1.652   4.607   0.074 -0.1565 -0.4883  1.5248
 1137SOL    HW2 4036   1.584   4.526  -0.050 -0.3269  2.4571 -0.4282
 1138SOL     OW 4037   1.807   0.089   4.376  0.1080  0.1093  0.5502
 1138SOL    HW1 4038   1.722   0.142   4.376 -0.1906 -0.3614  0.6463
 1138SOL    HW2 4039   1.814   0.037   4.291  0.4578  0.3988  0.4047
 1139SOL     OW 4040   3.027   2.398   3.509 -0.0971 -0.3695 -0.7257
 1139SOL    HW1 4041   3.033   2.465   3.435 -0.1033  0.1437 -0.2730
 1139SOL    HW2 4042   3.059   2.441   3.594  0.1467 -1.0254 -0.4830
 1140SOL     OW 4043   2.725   2.777   4.595 -0.5676 -0.0249  0.3740
 1140SOL    HW1 4044   2.746   2.765   4.498  4.2694 -3.5023  1.4614
 1140SOL    HW2 4045   2.649   2.717   4.620 -2.1096  1.1646 -1.2050
 1141SOL     OW 4046   1.566   4.165   4.843  1.3883  0.0206  0.6007
 1141SOL    HW1 4047   1.550   4.208   4.932  1.9318  1.0227  0.2312
 1141SOL    HW2 4048   1.662   4.177   4.817  0.7071  2.0612 -1.2853
 1142SOL     OW 4049   1.190   0.375   3.740 -0.0922  0.1606 -0.1907
 1142SOL    HW1 4050   1.253   0.434   3.689  1.1498  1.3492  2.5500
 1142SOL    HW2 4051   1.127   0.431   3.794  1.1100 -0.8804  2.4820
 1143SOL     OW 4052   4.978   1.936   0.913 -0.1003  0.1644 -0.0048
 1143SOL    HW1 4053   4.879   1.939   0.926  0.1491  3.5367  2.2398
 1143SOL    HW2 4054   5.004   2.001   0.842  0.6402  0.5699  0.6332
 1144SOL     OW 4055   1.963   4.759   2.054  0.6062  0.1635  0.2407
 1144SOL    HW1 4056   1.867   4.773   2.029 -0.1610 -2.4316  1.3440
 1144SOL    HW2 4057   1.985   4.814   2.134 -0.1362  0.3371  0.3329
 1145SOL     OW 4058   3.737   4.549   4.761  1.2816  0.5709 -0.0879
 1145SOL    HW1 4059   3.669   4.584   4.696  1.4021  2.1155  0.5708
 1145SOL    HW2 4060   3.828   4.554   4.719  1.2516  0.7128 -0.1392
 1146SOL     OW 4061   1.933   0.394   2.970  0.2546  0.0311 -0.1257
 1146SOL    HW1 4062   1.915   0.302   3.004 -0.1084  1.1675  3.1350
 1146SOL    HW2 4063   2.013   0.431   3.017  1.6784  0.7003 -2.9087
 1147SOL     OW 4064   2.423   4.285   0.651  0.0461 -0.3398 -0.2114
 1147SOL    HW1 4065   2.373   4.367   0.678  2.9186  1.0366  1.4382
 1147SOL    HW2 4066   2.470   4.303   0.564  2.2233  0.6306  1.0690
 1148SOL     OW 4067   4.423   1.008   3.102  0.0969 -0.0785 -0.7085
 1148SOL    HW1 4068   4.412   1.080   3.171  1.1463  0.0505 -0.6619
 1148SOL    HW2 4069   4.461   0.926   3.144 -1.8240 -0.9832 -0.6011
 1149SOL     OW 4070   2.664   0.780   0.067  0.3945 -0.8976 -0.3579
 1149SOL    HW1 4071   2.650   0.804   0.163  1.2442  1.9322 -0.8353
 1149SOL    HW2 4072   2.686   0.683   0.059 -2.6488 -1.9045  1.9458
 1150SOL     OW 4073   2.904   1.499   3.687 -0.1900  0.2229 -0.3549
 1150SOL    HW1 4074   2.823   1.478   3.742  0.4371  0.0752  0.5339
 1150SOL    HW2 4075   2.961   1.418   3.679 -0.4053  0.1761 -1.4622
 1151SOL     OW 4076   2.493   2.751   1.746  0.3201 -0.5098 -0.1642
 1151SOL    HW1 4077   2.463   2.845   1.732 -0.4765 -0.7771 -0.3389
 1151SOL    HW2 4078   2.443   2.691   1.682  3.2386 -0.6588 -2.5172
 1152SOL     OW 4079   4.733   3.187   1.889  0.0863  1.0558 -1.4439
 1152SOL    HW1 4080   4.699   3.093   1.878 -0.7026  0.9944  1.0769
 1152SOL    HW2 4081   4.806   3.188   1.957 -2.2852  2.6568  1.2895
 1153SOL     OW 4082   2.253   1.379   2.461 -0.9915  0.4822  0.4009
 1153SOL    HW1 4083   2.324   1.390   2.391 -1.1073 -0.2646  0.1568
 1153SOL    HW2 4084   2.207   1.467   2.476 -0.1616  0.9201  0.4063
 1154SOL     OW 4085   1.728   0.304   1.618  0.1647  0.6565  0.0244
 1154SOL    HW1 4086   1.672   0.383   1.642  0.5414  1.6933 -2.2168
 1154SOL    HW2 4087   1.733   0.296   1.518  1.6198 -1.1427  0.1863
 1155SOL     OW 4088   3.052   4.612   2.474 -0.2368  0.1751 -0.6623
 1155SOL    HW1 4089   3.036   4.582   2.568 -0.8776 -0.5481 -0.9851
 1155SOL    HW2 4090   3.099   4.540   2.424  1.2852  1.0753 -0.5641
 1156SOL     OW 4091   2.094   3.600   4.976  0.3776  0.0292  0.5232
 1156SOL    HW1 4092   2.124   3.582   5.070  1.5029  0.4581  0.2487
 1156SOL    HW2 4093   2.157   3.557   4.912 -1.8647 -2.7036 -0.0719
 1157SOL     OW 4094   0.628   4.186   0.526  0.0123 -0.5551  0.3433
 1157SOL    HW1 4095   0.672   4.101   0.554 -0.5033 -1.8830 -2.5696
 1157SOL    HW2 4096   0.552   4.166   0.464 -0.7552  2.0000  0.3420
 1158SOL     OW 4097   3.354   3.301   1.283 -0.0631 -0.4928  0.7852
 1158SOL    HW1 4098   3.275   3.239   1.281  1.2785 -2.4092  2.8595
 1158SOL    HW2 4099   3.339   3.376   1.219 -1.1715 -3.6771 -3.0965
 1159SOL     OW 4100   4.741   2.859   3.317 -0.5515 -0.6195 -0.7142
 1159SOL    HW1 4101   4.744   2.951   3.279 -2.6067  0.0612  0.5474
 1159SOL    HW2 4102   4.739   2.792   3.243  2.1492  0.2139 -1.6525
 1160SOL     OW 4103   0.426   1.046   1.301  0.3818  0.1328 -0.7991
 1160SOL    HW1 4104   0.383   1.136   1.305  0.4632  0.2579 -2.1193
 1160SOL    HW2 4105   0.455   1.027   1.207  0.1100 -1.3992 -0.6033
 1161SOL     OW 4106   2.110   1.011   1.532 -0.4739 -0.1434  0.2541
 1161SOL    HW1 4107   2.155   0.924   1.510  0.1143  0.3724 -0.6697
 1161SOL    HW2 4108   2.157   1.054   1.609  1.0303  0.6499 -1.0470
 1162SOL     OW 4109   3.208   2.813   3.248 -0.0275  0.3782 -0.2844
 1162SOL    HW1 4110   3.200   2.787   3.152 -3.6195  0.4980 -0.1844
 1162SOL    HW2 4111   3.252   2.740   3.299  0.8603 -0.1990 -1.8048
 1163SOL     OW 4112   3.057   4.995   3.492  1.4490 -0.2626  0.7525
 1163SOL    HW1 4113   3.031   4.975   3.586  0.6212  0.7994  0.7765
 1163SOL    HW2 4114   3.044   5.093   3.474  0.7673 -0.5939 -0.7129
 1164SOL     OW 4115   4.644   4.118   0.388 -0.0350  0.4280  0.7414
 1164SOL    HW1 4116   4.567   4.123   0.325  0.4166  3.0055  0.2624
 1164SOL    HW2 4117   4.719   4.069   0.345 -0.0710  1.3104 -0.3800
 1165SOL     OW 4118   1.045   4.683   2.139  0.1973  0.4590  0.5800
 1165SOL    HW1 4119   1.015   4.659   2.046  1.2258  0.1952  0.3038
 1165SOL    HW2 4120   1.050   4.782   2.147 -0.6657  0.5076  0.6125
 1166SOL     OW 4121   1.848   3.853   1.138  0.7903  0.5331  0.6371
 1166SOL    HW1 4122   1.942   3.850   1.174  0.7834  0.6288  0.6642
 1166SOL    HW2 4123   1.785   3.813   1.204  0.6056  1.8604  1.2947
 1167SOL     OW 4124   1.409   2.314   4.896  0.0399  0.7373  0.4350
 1167SOL    HW1 4125   1.508   2.319   4.908 -0.2425  0.9373  3.3741
 1167SOL    HW2 4126   1.387   2.247   4.825  2.2466  0.9143 -0.4919
 1168SOL     OW 4127   2.310   2.374   4.751 -0.5088 -0.6283  0.5472
 1168SOL    HW1 4128   2.325   2.395   4.847  0.0730  0.9238  0.1327
 1168SOL    HW2 4129   2.220   2.409   4.723 -0.7383 -1.2023  0.5466
 1169SOL     OW 4130   1.026   2.389   0.911 -0.3878 -0.8884 -0.3408
 1169SOL    HW1 4131   0.931   2.405   0.939  0.3321 -1.4352  2.6884
 1169SOL    HW2 4132   1.034   2.295   0.878 -0.6022 -1.3993  1.0001
 1170SOL     OW 4133   0.760   0.034   0.650 -0.5054 -0.8670  0.1213
 1170SOL    HW1 4134   0.830  -0.035   0.630 -2.0592 -2.2531 -0.7716
 1170SOL    HW2 4135   0.798   0.125   0.632  0.2677 -1.6793 -3.1030
 1171SOL     OW 4136   4.478   4.512   2.185 -0.2283 -0.1330  0.1167
 1171SOL    HW1 4137   4.430   4.484   2.102  0.3231 -0.4158 -0.1153
 1171SOL    HW2 4138   4.577   4.505   2.170 -0.1268 -0.3918  0.8680
 1172SOL     OW 4139   0.371   3.116   1.336 -0.3141 -0.6995  0.0070
 1172SOL    HW1 4140   0.386   3.203   1.382  0.9716 -1.3647  0.8782
 1172SOL    HW2 4141   0.383   3.128   1.237 -2.4494  0.5861 -0.1739
 1173SOL     OW 4142   4.358   4.398   1.666 -0.1936 -0.0922  0.3959
 1173SOL    HW1 4143   4.452   4.428   1.680 -0.1905 -0.3458  0.9652
 1173SOL    HW2 4144   4.352   4.347   1.580 -0.5132  2.7444 -1.3749
 1174SOL     OW 4145   2.199   0.638   1.892  0.4276 -0.4705  0.1668
 1174SOL    HW1 4146   2.136   0.610   1.964  1.7040  1.5363  2.1942
 1174SOL    HW2 4147   2.291   0.603   1.911  0.5031 -1.2032 -1.3628
 1175SOL     OW 4148   1.663   4.941   4.778 -0.1727 -0.0004  0.4186
 1175SOL    HW1 4149   1.588   4.984   4.728  0.7298  3.8267  2.0727
 1175SOL    HW2 4150   1.749   4.958   4.730  0.2159  0.1275  1.1482
 1176SOL     OW 4151   2.894   1.919   4.048  0.7097 -0.0648  0.2712
 1176SOL    HW1 4152   2.813   1.865   4.027  0.7427 -0.4625  1.1230
 1176SOL    HW2 4153   2.899   1.998   3.987  1.6555 -1.9899 -2.3514
 1177SOL     OW 4154   3.214   3.878   3.993  1.3164 -0.0806  0.2999
 1177SOL    HW1 4155   3.169   3.808   3.936 -0.8401  1.5354 -0.1191
 1177SOL    HW2 4156   3.170   3.881   4.082  0.8711  1.2236  0.0521
 1178SOL     OW 4157   0.413   0.551   2.650 -0.6533  0.0630 -0.6702
 1178SOL    HW1 4158   0.398   0.467   2.598 -1.2415  0.3435 -0.9586
 1178SOL    HW2 4159   0.424   0.529   2.747  1.5533 -0.5775 -1.0185
 1179SOL     OW 4160   3.772   4.831   0.267 -0.1075 -0.0654 -0.0088
 1179SOL    HW1 4161   3.783   4.797   0.174 -0.7085  3.2291 -1.4075
 1179SOL    HW2 4162   3.772   4.931   0.267  1.9615  0.1500  3.8167
 1180SOL     OW 4163   2.701   4.648   0.781  0.2835 -0.1624  0.6768
 1180SOL    HW1 4164   2.782   4.615   0.831  1.4087 -0.3028 -1.1395
 1180SOL    HW2 4165   2.719   4.643   0.683 -1.1614  1.8147  0.2665
 1181SOL     OW 4166   4.700   1.814   3.480 -0.5128 -0.3505 -0.5934
 1181SOL    HW1 4167   4.623   1.754   3.459 -0.8032  0.1940 -1.1349
 1181SOL    HW2 4168   4.673   1.909   3.464  0.2792 -0.1525 -0.8165
 1182SOL     OW 4169   3.316   4.308   1.579  0.3519 -0.6427  0.6745
 1182SOL    HW1 4170   3.355   4.302   1.671 -1.1812  2.5435  1.7167
 1182SOL    HW2 4171   3.353   4.388   1.532 -1.1824 -0.3858 -0.1875
 1183SOL     OW 4172   3.266   3.307   1.995  0.1885  0.1381  0.0511
 1183SOL    HW1 4173   3.254   3.227   2.053  1.6614  1.5170  2.4438
 1183SOL    HW2 4174   3.356   3.303   1.950  1.1609  1.2906  1.7735
 1184SOL     OW 4175   3.092   3.312   4.472 -0.1394 -0.2150 -0.7556
 1184SOL    HW1 4176   3.115   3.266   4.558 -3.2477 -2.6991 -1.0794
 1184SOL    HW2 4177   3.020   3.379   4.489 -0.9503 -0.8990 -1.4072
 1185SOL     OW 4178   3.638   1.965   2.724 -0.4108 -0.3798 -0.4108
 1185SOL    HW1 4179   3.708   2.030   2.753  0.5420 -0.9698 -1.3155
 1185SOL    HW2 4180   3.551   1.990   2.766  1.0752 -2.1681  4.5449
 1186SOL     OW 4181   4.700   2.351   2.171 -0.2768  0.2265  0.5408
 1186SOL    HW1 4182   4.695   2.268   2.116  1.8222  1.7506 -2.2106
 1186SOL    HW2 4183   4.784   2.350   2.225  1.2040  1.6430 -1.6139
 1187SOL     OW 4184   3.844   2.955   1.565  0.7662  0.1020  0.7485
 1187SOL    HW1 4185   3.887   2.951   1.655 -0.3793 -0.3487  1.3003
 1187SOL    HW2 4186   3.751   2.990   1.574  1.1715  1.6193 -0.4883
 1188SOL     OW 4187   0.746   0.907   4.027 -0.2637  0.2712  0.4343
 1188SOL    HW1 4188   0.671   0.857   4.072  0.4415 -1.3847 -0.1699
 1188SOL    HW2 4189   0.735   0.901   3.928  1.3726 -1.1904  0.2962
 1189SOL     OW 4190   3.067   0.364   4.996  0.5390 -0.3897  0.0907
 1189SOL    HW1 4191   3.094   0.433   4.929 -1.1778 -0.6519 -0.9604
 1189SOL    HW2 4192   3.112   0.277   4.975  0.2695 -0.3821 -0.5528
 1190SOL     OW 4193   0.839   1.075   2.178  0.4501 -0.0398  0.5419
 1190SOL    HW1 4194   0.855   1.074   2.277  0.0561  3.0603  0.7253
 1190SOL    HW2 4195   0.742   1.089   2.160  0.3147 -1.8627 -0.3620
 1191SOL     OW 4196   4.986   4.270   3.800 -0.0381 -0.1442  0.1368
 1191SOL    HW1 4197   5.054   4.343   3.799 -0.7540  0.5330 -0.3245
 1191SOL    HW2 4198   5.031   4.182   3.787  1.1932 -0.1282  3.3643
 1192SOL     OW 4199   1.208   4.646   3.425 -0.6458 -0.1784 -0.2162
 1192SOL    HW1 4200   1.140   4.586   3.467  0.7737 -3.2239 -1.9104
 1192SOL    HW2 4201   1.173   4.680   3.338 -0.6253 -0.3507 -0.2915
 1193SOL     OW 4202   2.646   0.448   2.774  0.7621 -0.2870 -0.2358
 1193SOL    HW1 4203   2.732   0.426   2.728  0.5575 -2.6500  0.3885
 1193SOL    HW2 4204   2.578   0.377   2.753 -0.9385  1.3002 -0.3759
 1194SOL     OW 4205   4.585   0.325   3.716 -0.5062  0.3073  0.0825
 1194SOL    HW1 4206   4.543   0.416   3.720 -1.9551 -0.3516  0.8249
 1194SOL    HW2 4207   4.617   0.300   3.808  0.9487  0.5070 -0.3390
 1195SOL     OW 4208   0.697   2.888   0.560 -0.1978 -0.3149 -0.8818
 1195SOL    HW1 4209   0.653   2.799   0.549  0.8022 -1.3564  2.5390
 1195SOL    HW2 4210   0.699   2.913   0.656  0.6983  2.8846 -1.6031
 1196SOL     OW 4211   1.894   0.273   0.603 -0.2732 -0.5962 -0.6961
 1196SOL    HW1 4212   1.932   0.361   0.575 -3.1073  0.3706 -1.8132
 1196SOL    HW2 4213   1.902   0.262   0.702  2.0823 -0.1305 -0.7842
 1197SOL     OW 4214   0.544   1.468   0.105 -0.2412 -0.5248  0.6576
 1197SOL    HW1 4215   0.562   1.460   0.203  0.4314 -0.3782  0.5550
 1197SOL    HW2 4216   0.565   1.380   0.060  2.3134  0.1991  0.2442
 1198SOL     OW 4217   1.177   2.206   3.350  0.9545 -0.1567 -0.2450
 1198SOL    HW1 4218   1.270   2.172   3.336  1.3659 -0.0155  1.7757
 1198SOL    HW2 4219   1.167   2.295   3.306  1.3706 -0.7256 -1.5314
 1199SOL     OW 4220   1.625   3.316   4.928 -0.1818 -0.2291 -0.3239
 1199SOL    HW1 4221   1.687   3.310   4.850  0.1329 -0.1438 -0.0832
 1199SOL    HW2 4222   1.550   3.252   4.917 -0.7020  0.5106 -1.2045
 1200SOL     OW 4223   4.950   1.785   4.894  0.4889  0.2808 -0.4904
 1200SOL    HW1 4224   5.002   1.746   4.819  0.5240  1.1736 -0.9466
 1200SOL    HW2 4225   4.856   1.801   4.865  0.9305  2.2971 -0.9788
 1201SOL     OW 4226   4.717   4.890   2.681 -0.2322 -0.1146  1.1711
 1201SOL    HW1 4227   4.796   4.951   2.683 -0.8326  0.6959  1.0127
 1201SOL    HW2 4228   4.737   4.811   2.623 -0.3414  1.2653 -0.8797
 1202SOL     OW 4229   1.512   3.188   0.490 -0.0243  0.0779  0.8161
 1202SOL    HW1 4230   1.521   3.129   0.409 -0.0677  0.3317  0.6283
 1202SOL    HW2 4231   1.433   3.159   0.543 -0.7987  0.7639  0.0609
 1203SOL     OW 4232   0.707   2.649   2.896 -0.8784  0.5678  0.2913
 1203SOL    HW1 4233   0.641   2.698   2.840 -0.3779 -1.0316 -1.8352
 1203SOL    HW2 4234   0.689   2.550   2.890 -0.4670  0.2989  2.5840
 1204SOL     OW 4235   2.611   2.297   0.292 -0.6811  0.1754 -0.4941
 1204SOL    HW1 4236   2.599   2.380   0.239  0.1255  0.1692 -0.6945
 1204SOL    HW2 4237   2.699   2.300   0.339 -1.1615 -0.0404  0.4472
 1205SOL     OW 4238   1.739   2.230   4.689  0.4879  0.6927  0.2803
 1205SOL    HW1 4239   1.795   2.299   4.735 -1.1925  1.8699  0.6343
 1205SOL    HW2 4240   1.794   2.148   4.673  2.2706  1.7584  0.6858
 1206SOL     OW 4241   1.528   4.347   4.369 -0.0429 -0.2069 -0.0164
 1206SOL    HW1 4242   1.566   4.379   4.456  1.3735 -0.6899 -0.4221
 1206SOL    HW2 4243   1.482   4.260   4.383  3.4816 -2.3239 -0.2808
 1207SOL     OW 4244   1.723   4.723   4.293  0.1648 -0.1111  0.0639
 1207SOL    HW1 4245   1.675   4.782   4.229  0.9965  0.1171 -0.3603
 1207SOL    HW2 4246   1.690   4.629   4.282 -0.0590  0.0119 -0.3453
 1208SOL     OW 4247   4.080   3.667   3.576 -0.0412 -0.4703  1.0904
 1208SOL    HW1 4248   3.982   3.676   3.594 -0.2315  2.6370 -0.7871
 1208SOL    HW2 4249   4.131   3.696   3.657 -0.7066 -0.3389  1.4696
 1209SOL     OW 4250   3.298   1.704   2.053 -0.5565 -0.9657 -0.1579
 1209SOL    HW1 4251   3.253   1.793   2.047  0.7794 -0.1178  1.6566
 1209SOL    HW2 4252   3.389   1.709   2.011 -0.8227 -1.7538 -0.8627
 1210SOL     OW 4253   3.837   4.711   2.598  0.1320  0.3018  0.4005
 1210SOL    HW1 4254   3.829   4.780   2.670 -0.8881  1.0894 -0.4264
 1210SOL    HW2 4255   3.834   4.620   2.638 -2.3673  0.6837  1.2310
 1211SOL     OW 4256   0.342   3.728   2.614 -0.0577  0.2668 -0.2857
 1211SOL    HW1 4257   0.288   3.700   2.534  1.1442 -0.0933 -1.0064
 1211SOL    HW2 4258   0.393   3.811   2.592  0.5202 -0.0077 -0.0219
 1212SOL     OW 4259   3.922   2.114   2.668 -0.1074  0.2285 -0.8667
 1212SOL    HW1 4260   3.970   2.201   2.684  0.7571 -0.8012  3.2403
 1212SOL    HW2 4261   3.974   2.060   2.602 -1.5811  3.2837 -4.9919
 1213SOL     OW 4262   0.140   3.062   2.512 -0.1718 -1.1477  1.2904
 1213SOL    HW1 4263   0.085   3.128   2.460 -0.3802 -2.3750 -0.1451
 1213SOL    HW2 4264   0.234   3.095   2.519 -0.6390  0.0643  2.0572
 1214SOL     OW 4265   1.398   3.180   4.995 -0.1490 -0.2368  0.4884
 1214SOL    HW1 4266   1.338   3.105   5.022 -2.1181  1.1564  0.1728
 1214SOL    HW2 4267   1.427   3.231   5.077 -2.1121  1.0309  0.4551
 1215SOL     OW 4268   1.833   3.344   3.349 -0.2747  0.6151  0.6487
 1215SOL    HW1 4269   1.749   3.351   3.402 -1.7395  1.8233 -1.6390
 1215SOL    HW2 4270   1.912   3.354   3.409 -1.7134 -0.5066  2.8742
 1216SOL     OW 4271   3.492   0.604   0.353  0.5084  0.0391  0.3645
 1216SOL    HW1 4272   3.481   0.517   0.305 -0.5465  0.1180  0.4375
 1216SOL    HW2 4273   3.496   0.678   0.286 -0.2540  0.0829  0.3602
 1217SOL     OW 4274   2.437   1.220   1.507  0.2564  0.0793 -0.7588
 1217SOL    HW1 4275   2.380   1.227   1.426 -0.6593  1.1620 -0.0530
 1217SOL    HW2 4276   2.380   1.215   1.589  1.1547 -1.1910 -0.1674
 1218SOL     OW 4277   3.969   3.234   0.356 -0.4463 -0.0195 -0.3991
 1218SOL    HW1 4278   4.005   3.228   0.263  0.8343 -0.1891  0.0932
 1218SOL    HW2 4279   3.963   3.330   0.383  1.1524 -0.0156  0.0596
 1219SOL     OW 4280   0.204   1.556   3.655 -0.0652  0.3355  0.2599
 1219SOL    HW1 4281   0.132   1.594   3.713  0.1252 -2.5970  2.6294
 1219SOL    HW2 4282   0.221   1.461   3.680  3.2971  0.2951 -1.5694
 1220SOL     OW 4283   2.709   4.723   1.874  0.4493 -0.7961  0.3006
 1220SOL    HW1 4284   2.737   4.640   1.923  1.9155 -0.5174 -0.0144
 1220SOL    HW2 4285   2.645   4.698   1.801 -0.7361 -1.3715  1.5018
 1221SOL     OW 4286   3.555   0.459   0.842 -0.7325 -0.6394  0.2100
 1221SOL    HW1 4287   3.467   0.439   0.799  0.9988 -5.1375 -1.9416
 1221SOL    HW2 4288   3.582   0.553   0.821 -2.5210 -0.8271 -3.9613
 1222SOL     OW 4289   1.569   3.137   2.096  0.0833 -0.9312  0.1598
 1222SOL    HW1 4290   1.558   3.225   2.143 -1.1008 -1.1824  0.3637
 1222SOL    HW2 4291   1.594   3.154   2.001  1.6828 -0.4094  0.6225
 1223SOL     OW 4292   2.070   1.450   1.116 -0.5451  0.5241 -0.4354
 1223SOL    HW1 4293   2.048   1.486   1.026 -0.2099 -0.7334 -1.0534
 1223SOL    HW2 4294   2.163   1.412   1.115 -0.1356  1.4426  0.7461
 1224SOL     OW 4295   2.779   2.266   2.390 -0.0528 -0.0454 -0.8486
 1224SOL    HW1 4296   2.733   2.352   2.367 -0.6054  0.4102  1.6465
 1224SOL    HW2 4297   2.869   2.286   2.428 -0.3043 -0.5138  0.0235
 1225SOL     OW 4298   1.873   0.377   3.427 -0.3768 -0.2020 -0.8995
 1225SOL    HW1 4299   1.853   0.437   3.504  2.9816 -1.7545  1.4241
 1225SOL    HW2 4300   1.815   0.296   3.432  1.7497 -1.7336  2.0060
 1226SOL     OW 4301   0.595   1.528   0.664 -0.0085  0.2432  0.2266
 1226SOL    HW1 4302   0.579   1.620   0.700  0.9124 -0.1596  1.7227
 1226SOL    HW2 4303   0.515   1.471   0.684 -1.0125  0.9260 -1.5760
 1227SOL     OW 4304   2.179   1.142   4.327 -0.0774  0.3046 -1.1195
 1227SOL    HW1 4305   2.084   1.120   4.347 -0.5021  1.6065 -1.6409
 1227SOL    HW2 4306   2.230   1.057   4.314 -0.4732 -0.5697  2.0429
 1228SOL     OW 4307   0.047   3.512   2.163  0.3568 -0.1947 -0.7470
 1228SOL    HW1 4308   0.043   3.597   2.110 -1.1689 -0.8404 -1.7372
 1228SOL    HW2 4309   0.137   3.470   2.150  1.0050  1.0649 -0.5368
 1229SOL     OW 4310   0.431   0.186   2.308 -0.0235  0.0048 -0.3078
 1229SOL    HW1 4311   0.376   0.268   2.325 -1.9403 -1.1407 -0.6012
 1229SOL    HW2 4312   0.474   0.193   2.218 -1.3649  0.1023 -0.9675
 1230SOL     OW 4313   4.186   0.544   4.314 -0.0282 -0.0262  1.3293
 1230SOL    HW1 4314   4.200   0.459   4.366 -2.1026 -1.6239 -0.5129
 1230SOL    HW2 4315   4.259   0.554   4.246  1.9772  1.4091  3.5499
 1231SOL     OW 4316   3.414   3.708   1.719 -0.2341 -0.7234 -0.0302
 1231SOL    HW1 4317   3.325   3.750   1.737  0.3708  2.3498 -3.1052
 1231SOL    HW2 4318   3.409   3.652   1.637  1.0137  1.3190 -1.5964
 1232SOL     OW 4319   3.218   4.343   2.527  0.1385  0.1315 -0.2744
 1232SOL    HW1 4320   3.267   4.425   2.556  0.8969 -0.3659 -0.1129
 1232SOL    HW2 4321   3.212   4.341   2.427  1.0233 -0.1217 -0.3286
 1233SOL     OW 4322   0.478   1.718   0.002 -0.0666  0.1501  0.5580
 1233SOL    HW1 4323   0.418   1.723  -0.078  0.4821  2.7149  0.2203
 1233SOL    HW2 4324   0.503   1.623   0.018 -0.8112 -0.5403 -1.8496
 1234SOL     OW 4325   0.822   2.068   2.793  0.1205 -0.3581 -0.6953
 1234SOL    HW1 4326   0.902   2.051   2.850 -0.2187 -2.4814 -0.7686
 1234SOL    HW2 4327   0.785   1.981   2.760 -1.3685  0.6504 -1.8553
 1235SOL     OW 4328   0.127   3.691   3.800 -0.3007 -0.7386 -0.3426
 1235SOL    HW1 4329   0.069   3.770   3.817  0.6700 -0.0099 -0.2972
 1235SOL    HW2 4330   0.188   3.710   3.723 -1.4580 -2.2407 -1.7159
 1236SOL     OW 4331   3.730   4.080   0.474 -0.2756  0.9293 -0.8261
 1236SOL    HW1 4332   3.753   4.129   0.558  1.9561 -0.8033 -0.3405
 1236SOL    HW2 4333   3.639   4.038   0.485 -0.1116  0.8936  0.6615
 1237SOL     OW 4334   1.804   1.294   1.885  0.3063  0.2237  0.4844
 1237SOL    HW1 4335   1.836   1.389   1.878  1.2749  0.0186  1.8106
 1237SOL    HW2 4336   1.705   1.293   1.895  0.1702  1.0333 -0.5523
 1238SOL     OW 4337   0.895   2.404   4.851  0.0031  0.3261 -0.1698
 1238SOL    HW1 4338   0.876   2.494   4.813 -2.5361  0.8105  1.9990
 1238SOL    HW2 4339   0.812   2.365   4.890  1.9497 -0.9358  3.1247
 1239SOL     OW 4340   2.549   1.161   3.907 -0.7716 -0.0573  0.8264
 1239SOL    HW1 4341   2.563   1.227   3.834 -2.4851 -1.2068 -0.6572
 1239SOL    HW2 4342   2.472   1.191   3.965 -1.3395 -0.5480  0.3455
 1240SOL     OW 4343   3.289   4.645   2.925 -0.6038 -0.7135 -0.3040
 1240SOL    HW1 4344   3.374   4.618   2.970 -1.7301  0.3791  2.7651
 1240SOL    HW2 4345   3.212   4.598   2.969 -1.8096  0.5922 -0.9375
 1241SOL     OW 4346   1.552   0.771   4.739 -0.2508 -0.0249  0.4519
 1241SOL    HW1 4347   1.458   0.741   4.757 -0.1959 -1.1628 -0.9447
 1241SOL    HW2 4348   1.559   0.803   4.644  0.5220  1.1798  0.8919
 1242SOL     OW 4349   1.580   0.617   0.053  0.8607  0.2979 -0.2728
 1242SOL    HW1 4350   1.508   0.577   0.108  0.4461  1.3310 -0.0330
 1242SOL    HW2 4351   1.552   0.618  -0.043  1.4639 -1.2384 -0.4892
 1243SOL     OW 4352   3.551   1.765   0.340  0.4305 -0.7555  0.2897
 1243SOL    HW1 4353   3.519   1.821   0.417  0.1216  1.4597 -1.3732
 1243SOL    HW2 4354   3.650   1.750   0.349  0.3146 -0.9804  1.3685
 1244SOL     OW 4355   3.717   3.377   1.231 -0.7286 -0.0770  0.4090
 1244SOL    HW1 4356   3.741   3.320   1.309 -1.6459 -1.5895 -0.3715
 1244SOL    HW2 4357   3.659   3.453   1.262 -0.7831 -0.4531  1.2406
 1245SOL     OW 4358   0.885   0.707   2.287 -0.4395 -0.3473  0.2752
 1245SOL    HW1 4359   0.882   0.680   2.190  0.1854  0.8770 -0.1023
 1245SOL    HW2 4360   0.957   0.774   2.301 -4.0658  4.0019  0.3888
 1246SOL     OW 4361   0.646   4.981   1.460  0.0716 -0.1099  0.4262
 1246SOL    HW1 4362   0.573   5.049   1.464  1.0212  0.8753  2.5211
 1246SOL    HW2 4363   0.734   5.025   1.473  1.0898 -1.3303 -1.6775
 1247SOL     OW 4364   4.982   1.049   0.875 -1.0042  0.5626  0.2461
 1247SOL    HW1 4365   4.966   0.950   0.870 -0.5521  0.4628  0.7168
 1247SOL    HW2 4366   4.913   1.096   0.820 -1.3032 -0.0060  0.1199
 1248SOL     OW 4367   4.402   1.360   2.629 -0.6526  0.6088  0.5336
 1248SOL    HW1 4368   4.437   1.397   2.542 -0.6836  2.5251  1.2984
 1248SOL    HW2 4369   4.423   1.263   2.634  3.0721  1.2538  0.1545
 1249SOL     OW 4370   0.985   4.917   0.843  0.2981 -0.0308 -0.1407
 1249SOL    HW1 4371   0.908   4.936   0.903  0.6458 -2.1263  1.0582
 1249SOL    HW2 4372   1.071   4.932   0.893  0.5892 -2.4951  0.2311
 1250SOL     OW 4373   0.775   0.710   3.572  0.2851 -0.1316 -0.1359
 1250SOL    HW1 4374   0.763   0.612   3.588 -2.5213 -0.3895 -2.8275
 1250SOL    HW2 4375   0.839   0.723   3.496  0.5536  0.1163  0.1338
 1251SOL     OW 4376   1.289   1.839   2.023  0.1966 -0.5413  0.2168
 1251SOL    HW1 4377   1.202   1.882   2.046 -0.5414 -2.8048  1.9988
 1251SOL    HW2 4378   1.299   1.755   2.075  2.8156 -1.1089 -1.0632
 1252SOL     OW 4379   2.462   1.579   2.680  0.7251 -0.3703  0.2304
 1252SOL    HW1 4380   2.439   1.502   2.621 -1.7479  0.1761  0.3644
 1252SOL    HW2 4381   2.467   1.662   2.626  0.5351 -0.1902  0.4898
 1253SOL     OW 4382   3.439   4.129   3.995  0.1229 -0.0713  0.5452
 1253SOL    HW1 4383   3.410   4.223   3.977  0.0619  0.0384  1.2033
 1253SOL    HW2 4384   3.428   4.075   3.912  0.3659  0.5515  0.0936
 1254SOL     OW 4385   1.538   0.890   0.939 -0.0875 -0.0259  0.1961
 1254SOL    HW1 4386   1.636   0.910   0.930 -0.2527  2.9090  3.1543
 1254SOL    HW2 4387   1.524   0.819   1.007 -0.0272 -3.1051 -2.7394
 1255SOL     OW 4388   2.439   0.806   4.210 -0.4469 -0.2257 -0.4979
 1255SOL    HW1 4389   2.345   0.785   4.235  0.2539 -0.7532  1.9787
 1255SOL    HW2 4390   2.490   0.832   4.292  1.5051  0.3765 -1.8263
 1256SOL     OW 4391   3.258   4.571   1.451 -0.1561 -0.2342 -0.0096
 1256SOL    HW1 4392   3.324   4.633   1.408 -0.3036  0.5825  0.9094
 1256SOL    HW2 4393   3.272   4.572   1.550 -0.0135 -1.8543  0.0208
 1257SOL     OW 4394   1.321   2.985   4.768 -0.6055  0.1197  0.1542
 1257SOL    HW1 4395   1.242   2.952   4.819 -0.0303 -0.4751  0.6949
 1257SOL    HW2 4396   1.392   2.915   4.769 -0.3642  0.3416 -0.9871
 1258SOL     OW 4397   3.831   1.309   2.885  0.7090  0.1574  0.0444
 1258SOL    HW1 4398   3.835   1.387   2.948 -0.9406  0.6224 -0.3618
 1258SOL    HW2 4399   3.902   1.243   2.909  1.6020  1.3803  0.9319
 1259SOL     OW 4400   0.275   2.887   4.617 -0.3307  0.4928  1.0268
 1259SOL    HW1 4401   0.271   2.979   4.657 -1.2606  1.8041 -1.8136
 1259SOL    HW2 4402   0.314   2.824   4.683 -0.4433  2.7420  3.4036
 1260SOL     OW 4403   2.059   0.922   0.591 -0.7698 -0.7269  0.0852
 1260SOL    HW1 4404   1.970   0.907   0.548  1.0622 -1.9889 -3.6898
 1260SOL    HW2 4405   2.131   0.912   0.523  2.3175  0.7311  2.8581
 1261SOL     OW 4406   2.988   1.405   1.754 -0.4812  0.6164 -0.4386
 1261SOL    HW1 4407   3.058   1.401   1.683 -0.8484  1.8100 -0.9008
 1261SOL    HW2 4408   2.981   1.316   1.800  1.7693  0.6455  0.0652
 1262SOL     OW 4409   2.522   3.844   3.072 -0.6582 -0.6026 -0.0791
 1262SOL    HW1 4410   2.458   3.804   3.007 -0.6959 -0.6655 -0.0027
 1262SOL    HW2 4411   2.608   3.792   3.070 -2.0880 -3.5143  3.1400
 1263SOL     OW 4412   2.186   2.125   0.512 -0.1078 -0.6705 -1.0506
 1263SOL    HW1 4413   2.177   2.032   0.477 -1.1985 -0.9256 -0.1771
 1263SOL    HW2 4414   2.182   2.123   0.612 -0.6118  0.3513 -1.0362
 1264SOL     OW 4415   1.789   2.016   3.962 -0.0566  0.4946  0.0282
 1264SOL    HW1 4416   1.843   1.944   4.006 -1.4216 -1.3670 -1.1536
 1264SOL    HW2 4417   1.766   1.988   3.869 -0.1382  2.7876 -0.7040
 1265SOL     OW 4418   1.036   4.064   1.821  0.5226  0.9380 -0.4832
 1265SOL    HW1 4419   1.076   4.155   1.819 -0.2216  1.2709 -0.4657
 1265SOL    HW2 4420   0.937   4.071   1.820  0.4568  0.1239 -0.5756
 1266SOL     OW 4421   1.126   1.069   0.623 -0.1589 -0.0753 -0.0368
 1266SOL    HW1 4422   1.192   1.006   0.583 -0.4060  0.1485 -0.8289
 1266SOL    HW2 4423   1.147   1.162   0.592 -0.6480  0.0371 -0.0395
 1267SOL     OW 4424   0.509   4.517   1.961 -0.4417  0.1370  1.1334
 1267SOL    HW1 4425   0.543   4.466   2.040  0.5956 -0.0409  0.5993
 1267SOL    HW2 4426   0.501   4.455   1.882  1.6467  0.8924  0.2443
 1268SOL     OW 4427   3.901   4.729   1.107 -0.2213 -0.5475 -0.3797
 1268SOL    HW1 4428   3.884   4.703   1.202 -0.3547 -0.7684 -0.4612
 1268SOL    HW2 4429   3.959   4.811   1.104 -1.5923  0.4756 -0.0698
 1269SOL     OW 4430   2.969   2.761   4.706  0.1267  0.2787 -0.6073
 1269SOL    HW1 4431   3.037   2.821   4.662  0.5823  0.7575  0.7063
 1269SOL    HW2 4432   2.878   2.781   4.669  0.3000  1.6575 -0.3606
 1270SOL     OW 4433   4.200   2.536   3.568  0.0007 -0.2745  0.1845
 1270SOL    HW1 4434   4.276   2.558   3.507 -0.6418 -1.3262 -1.0318
 1270SOL    HW2 4435   4.130   2.606   3.560  0.4881  0.2910  0.7337
 1271SOL     OW 4436   0.900   4.826   1.369  0.1850 -0.8464  0.1115
 1271SOL    HW1 4437   0.824   4.801   1.309  0.1530 -1.1331  0.2692
 1271SOL    HW2 4438   0.976   4.859   1.313 -0.9931  2.0848  0.0756
 1272SOL     OW 4439   2.209   0.542   4.701 -0.4080  0.0291  0.0180
 1272SOL    HW1 4440   2.172   0.551   4.793 -3.4254  1.2598 -1.2077
 1272SOL    HW2 4441   2.201   0.447   4.671 -1.8329  0.0997  0.1230
 1273SOL     OW 4442   0.285   3.415   3.061 -0.0643 -0.5652  0.0579
 1273SOL    HW1 4443   0.321   3.488   3.004 -2.1743  0.4081 -0.0967
 1273SOL    HW2 4444   0.361   3.355   3.089  1.5046  0.8488 -0.9422
 1274SOL     OW 4445   0.424   3.074   3.822 -0.4897  0.9139  0.7185
 1274SOL    HW1 4446   0.431   3.170   3.796 -1.0809  0.5560 -0.8547
 1274SOL    HW2 4447   0.395   3.068   3.918  3.9131  2.2928  2.4279
 1275SOL     OW 4448   4.386   3.222   1.921  0.4666  1.0691 -0.1396
 1275SOL    HW1 4449   4.378   3.141   1.862  3.9788  0.1615  0.3868
 1275SOL    HW2 4450   4.449   3.202   1.996  1.2947  4.2186  0.1484
 1276SOL     OW 4451   2.925   4.809   0.179 -0.3926  0.0145  0.1762
 1276SOL    HW1 4452   3.021   4.783   0.166 -0.6662 -0.5381 -0.8158
 1276SOL    HW2 4453   2.894   4.861   0.100 -1.1682 -0.5758  0.0814
 1277SOL     OW 4454   4.523   3.466   4.308  0.7451 -0.0235  0.6226
 1277SOL    HW1 4455   4.531   3.377   4.263 -2.9515 -0.3003  0.1853
 1277SOL    HW2 4456   4.510   3.454   4.406 -0.5658 -0.0505  0.4558
 1278SOL     OW 4457   3.901   1.983   1.535  0.0833 -0.9483  0.1655
 1278SOL    HW1 4458   3.958   1.952   1.611  0.5665  0.5201  0.4313
 1278SOL    HW2 4459   3.812   2.013   1.570 -1.3460 -4.1606 -0.3488
 1279SOL     OW 4460   0.154   3.358   4.981  0.7162  0.2098 -0.2125
 1279SOL    HW1 4461   0.165   3.457   4.967  1.7425 -0.1617 -2.4639
 1279SOL    HW2 4462   0.228   3.325   5.040 -0.8149  1.0520  2.3088
 1280SOL     OW 4463   1.068   1.908   0.659 -0.1984 -0.4700 -0.0589
 1280SOL    HW1 4464   1.115   1.828   0.695  0.8588 -0.0492 -0.4436
 1280SOL    HW2 4465   0.993   1.879   0.600 -0.5165 -1.1637  0.6766
 1281SOL     OW 4466   1.197   1.076   1.627 -1.0221  0.1825  0.0522
 1281SOL    HW1 4467   1.176   1.034   1.539 -0.8964 -1.9234  0.9728
 1281SOL    HW2 4468   1.132   1.044   1.696  0.2824 -0.0745  1.2112
 1282SOL     OW 4469   2.478   4.526   2.041 -0.3276  0.9519  0.2166
 1282SOL    HW1 4470   2.503   4.576   2.124  1.0880  0.1548  0.3069
 1282SOL    HW2 4471   2.407   4.576   1.992 -4.9012 -0.8318  4.2730
 1283SOL     OW 4472   3.395   1.419   3.299 -0.3664 -0.5622  0.5029
 1283SOL    HW1 4473   3.336   1.339   3.285 -0.1511 -0.1493 -4.1322
 1283SOL    HW2 4474   3.349   1.501   3.266  2.2865 -0.1177 -2.6015
 1284SOL     OW 4475   3.840   3.527   1.026 -0.1887  0.2201 -0.4910
 1284SOL    HW1 4476   3.799   3.449   1.072 -0.6153 -0.1106 -1.4014
 1284SOL    HW2 4477   3.879   3.589   1.094 -2.4006  0.6836  0.4727
 1285SOL     OW 4478   4.315   3.062   0.344  0.6116 -0.1456 -0.5245
 1285SOL    HW1 4479   4.384   2.991   0.361  1.0287  0.5607  0.8894
 1285SOL    HW2 4480   4.224   3.026   0.362  0.6387 -0.8641 -1.6826
 1286SOL     OW 4481   1.141   4.245   0.053 -0.2276  0.0240 -0.5184
 1286SOL    HW1 4482   1.211   4.174   0.045 -2.3299 -2.1652 -0.5724
 1286SOL    HW2 4483   1.070   4.230  -0.016 -0.6704  2.3297 -0.6405
 1287SOL     OW 4484   0.280   2.941   1.745  0.1322 -0.3881  0.0252
 1287SOL    HW1 4485   0.234   3.005   1.684 -0.0161 -1.6447 -1.2419
 1287SOL    HW2 4486   0.311   2.862   1.693 -0.8939 -2.0049  1.7269
 1288SOL     OW 4487   4.987   3.015   0.845  0.1429 -0.1978  0.2852
 1288SOL    HW1 4488   4.956   3.043   0.936  0.2443 -1.0504  0.5912
 1288SOL    HW2 4489   5.021   2.921   0.849  0.6096 -0.0715 -0.5331
 1289SOL     OW 4490   4.487   4.865   2.003  0.7221 -0.0287  0.6637
 1289SOL    HW1 4491   4.514   4.795   1.936 -0.6113 -0.8119  0.9083
 1289SOL    HW2 4492   4.428   4.824   2.072  0.5983  1.1756  1.3013
 1290SOL     OW 4493   2.842   4.463   0.268 -0.3612  0.1132 -0.1093
 1290SOL    HW1 4494   2.794   4.416   0.342 -0.5685  1.9942  1.0261
 1290SOL    HW2 4495   2.788   4.455   0.184 -0.3087 -1.7403  0.0035
 1291SOL     OW 4496   1.655   1.271   3.888  0.5066 -0.4370 -0.2014
 1291SOL    HW1 4497   1.737   1.216   3.904  1.0766 -0.0284 -1.5047
 1291SOL    HW2 4498   1.585   1.247   3.954  2.5344  1.0441  2.7245
 1292SOL     OW 4499   0.167   2.827   0.964  1.3852  0.5264 -0.8355
 1292SOL    HW1 4500   0.115   2.835   1.049  0.9535  2.0728 -1.2313
 1292SOL    HW2 4501   0.195   2.731   0.952  2.3109  0.4186  1.5283
 1293SOL     OW 4502   4.394   4.288   3.573 -0.3350 -0.6870  0.0376
 1293SOL    HW1 4503   4.351   4.268   3.485 -2.2559  1.0815  0.4989
 1293SOL    HW2 4504   4.457   4.366   3.562  0.1022 -1.0321  0.0682
 1294SOL     OW 4505   1.652   0.389   0.535  0.6040  0.4279 -1.6216
 1294SOL    HW1 4506   1.729   0.355   0.481  0.3151  1.9691 -3.0884
 1294SOL    HW2 4507   1.650   0.342   0.623  1.5351 -1.6641 -2.6358
 1295SOL     OW 4508   1.589   3.227   2.867 -0.3846 -0.9161  0.1042
 1295SOL    HW1 4509   1.642   3.150   2.832  0.4477 -0.5650  0.5708
 1295SOL    HW2 4510   1.648   3.287   2.920 -0.8364  0.4776 -0.8955
 1296SOL     OW 4511   4.683   2.697   4.510  0.2594  0.4662  0.1972
 1296SOL    HW1 4512   4.779   2.723   4.500  0.7409 -1.5750 -0.9789
 1296SOL    HW2 4513   4.629   2.740   4.437  1.0725 -1.6918 -1.8212
 1297SOL     OW 4514   0.513   1.264   1.523  0.0367  0.2069  0.1182
 1297SOL    HW1 4515   0.419   1.263   1.559 -0.6643 -3.0948 -1.3529
 1297SOL    HW2 4516   0.557   1.177   1.547  2.4910  1.3740  0.0789
 1298SOL     OW 4517   0.517   4.898   4.839 -0.4946 -0.1415 -0.1578
 1298SOL    HW1 4518   0.541   4.819   4.897 -0.0933 -0.3560 -0.6114
 1298SOL    HW2 4519   0.418   4.912   4.842 -0.3750  0.6007  1.5388
 1299SOL     OW 4520   0.743   1.182   3.985  0.7866  0.0711 -0.2122
 1299SOL    HW1 4521   0.738   1.084   4.005  1.1920 -0.1485 -1.1374
 1299SOL    HW2 4522   0.806   1.198   3.908  1.2158  1.1185  0.3226
 1300SOL     OW 4523   1.170   4.069   0.417  0.4934  0.0829  0.5324
 1300SOL    HW1 4524   1.206   4.143   0.361 -1.1213 -1.3251 -2.6538
 1300SOL    HW2 4525   1.226   3.987   0.404 -2.4890 -1.6894 -3.2854
 1301SOL     OW 4526   1.812   4.924   1.305 -0.4268  1.0299 -0.7253
 1301SOL    HW1 4527   1.772   4.958   1.220 -1.5089  1.8954  0.0999
 1301SOL    HW2 4528   1.777   4.832   1.324 -1.9589  1.7069 -0.1049
 1302SOL     OW 4529   3.059   4.153   4.111 -1.0022 -0.6079  0.5241
 1302SOL    HW1 4530   3.158   4.162   4.115 -1.2099  2.1673  1.3791
 1302SOL    HW2 4531   3.016   4.238   4.141 -3.6780 -2.0461  1.1213
 1303SOL     OW 4532   4.579   4.129   4.731 -0.3715 -0.2919 -0.5276
 1303SOL    HW1 4533   4.514   4.169   4.796  1.8469  1.2793  0.8671
 1303SOL    HW2 4534   4.584   4.187   4.650 -0.1371  0.0459 -0.2762
 1304SOL     OW 4535   1.754   4.247   3.646  0.3975 -0.0521 -0.3908
 1304SOL    HW1 4536   1.798   4.174   3.593  1.3298  0.2766 -0.0847
 1304SOL    HW2 4537   1.733   4.213   3.738 -2.2342 -0.9820 -1.2484
 1305SOL     OW 4538   4.279   4.570   4.401 -0.3751  0.1986  0.6725
 1305SOL    HW1 4539   4.326   4.576   4.313  0.5593 -3.2305  0.8091
 1305SOL    HW2 4540   4.295   4.480   4.442 -1.5989  1.3018  3.9230
 1306SOL     OW 4541   2.365   3.742   4.816 -0.4319 -0.0881 -0.0090
 1306SOL    HW1 4542   2.451   3.707   4.850 -0.5838 -1.6196 -1.0836
 1306SOL    HW2 4543   2.295   3.670   4.820 -1.2921  0.6922 -0.4327
 1307SOL     OW 4544   4.007   0.551   3.803  0.2148  0.2850 -0.9523
 1307SOL    HW1 4545   4.007   0.626   3.738  0.8459  1.0564 -0.0910
 1307SOL    HW2 4546   4.095   0.504   3.801  0.4887  0.7360 -0.2156
 1308SOL     OW 4547   2.994   3.692   1.451 -1.1311  0.2837 -1.0790
 1308SOL    HW1 4548   2.994   3.785   1.488 -0.4238  0.7969 -2.2954
 1308SOL    HW2 4549   3.085   3.672   1.414 -0.7312 -1.5494  0.7029
 1309SOL     OW 4550   0.503   2.595   2.422 -0.2047  0.3965  0.3082
 1309SOL    HW1 4551   0.466   2.598   2.329  0.3248 -3.5102 -0.1953
 1309SOL    HW2 4552   0.437   2.550   2.482  0.9494 -0.5307  0.9231
 1310SOL     OW 4553   2.821   0.425   1.386 -0.1888  0.1644 -0.0081
 1310SOL    HW1 4554   2.873   0.457   1.465  0.9315 -0.4149 -0.4923
 1310SOL    HW2 4555   2.830   0.325   1.378 -1.8153 -0.0227  0.1979
 1311SOL     OW 4556   4.890   3.952   3.417 -0.5296 -0.4312 -0.4380
 1311SOL    HW1 4557   4.823   4.000   3.473 -0.3041 -0.0065 -0.5269
 1311SOL    HW2 4558   4.922   3.871   3.466 -1.8799 -1.2376 -0.8286
 1312SOL     OW 4559   1.837   3.352   3.645 -0.3072  0.1351 -0.2178
 1312SOL    HW1 4560   1.878   3.262   3.657  0.9779  0.5989 -1.0395
 1312SOL    HW2 4561   1.737   3.342   3.637 -0.1182 -1.2902 -1.1134
 1313SOL     OW 4562   3.233   2.907   3.678 -0.0447 -1.1124  0.1371
 1313SOL    HW1 4563   3.285   2.965   3.615  0.5736 -1.5863  0.2089
 1313SOL    HW2 4564   3.215   2.957   3.762  0.1751 -0.9018  0.0603
 1314SOL     OW 4565   2.185   2.031   2.089 -0.2103  0.5551 -0.7903
 1314SOL    HW1 4566   2.236   1.954   2.051  1.8296  0.8427  1.1681
 1314SOL    HW2 4567   2.112   1.996   2.147  2.0444 -0.0889  1.8740
 1315SOL     OW 4568   4.163   3.640   0.471  0.0003 -0.4520 -0.0554
 1315SOL    HW1 4569   4.260   3.645   0.446  0.6991  3.4829  2.5402
 1315SOL    HW2 4570   4.151   3.574   0.544  0.3305 -2.1501 -1.4666
 1316SOL     OW 4571   0.904   2.130   3.264 -0.0065 -0.1520  0.4137
 1316SOL    HW1 4572   0.987   2.127   3.320  1.5062  0.6063 -1.6448
 1316SOL    HW2 4573   0.846   2.206   3.293  1.2570  0.8819  0.3285
 1317SOL     OW 4574   0.532   3.287   4.361 -0.3980 -0.1977  0.1594
 1317SOL    HW1 4575   0.516   3.282   4.459 -0.2896 -1.4328  0.1252
 1317SOL    HW2 4576   0.472   3.357   4.321  0.3384  1.0876  1.2465
 1318SOL     OW 4577   2.034   3.476   0.326  0.5208  0.1165  0.3436
 1318SOL    HW1 4578   2.132   3.483   0.340  0.9450 -0.2773 -2.0536
 1318SOL    HW2 4579   2.013   3.395   0.271 -1.0026  0.9274 -0.3446
 1319SOL     OW 4580   4.804   3.614   2.263 -0.1716 -0.1381 -0.5625
 1319SOL    HW1 4581   4.716   3.567   2.254 -0.3353 -0.2068  1.0801
 1319SOL    HW2 4582   4.875   3.557   2.222 -1.0633  0.8488 -3.8687
 1320SOL     OW 4583   1.820   4.465   2.153 -0.2287  0.3259  0.3656
 1320SOL    HW1 4584   1.839   4.533   2.082 -0.6214 -1.0940 -1.1844
 1320SOL    HW2 4585   1.761   4.505   2.223 -1.6118  1.2335 -1.2160
 1321SOL     OW 4586   0.714   1.830   2.332 -0.3141 -0.3981 -0.4761
 1321SOL    HW1 4587   0.743   1.916   2.289 -3.0516 -0.1887 -2.1831
 1321SOL    HW2 4588   0.623   1.806   2.298 -0.0755 -3.4532  0.7881
 1322SOL     OW 4589   4.409   0.017   2.423 -0.6523 -0.0699 -0.5234
 1322SOL    HW1 4590   4.311   0.034   2.413 -0.2218  2.7432 -0.8519
 1322SOL    HW2 4591   4.424  -0.054   2.491 -2.9510 -2.9923 -2.7815
 1323SOL     OW 4592   1.941   3.812   3.424 -0.0149 -0.0266 -0.2606
 1323SOL    HW1 4593   1.849   3.779   3.447 -0.5658  1.7273  0.2144
 1323SOL    HW2 4594   1.980   3.753   3.354 -0.7525 -1.8958  0.8034
 1324SOL     OW 4595   4.268   2.414   4.948 -0.1240 -0.7592 -0.3879
 1324SOL    HW1 4596   4.227   2.501   4.975 -0.4272 -0.1135 -2.7377
 1324SOL    HW2 4597   4.269   2.352   5.027  0.2830  1.4035  1.4054
 1325SOL     OW 4598   0.137   1.081   1.106  0.0986 -0.3869  0.4342
 1325SOL    HW1 4599   0.084   1.066   1.022  1.4920 -0.7198 -0.4141
 1325SOL    HW2 4600   0.107   1.167   1.149  0.3727  0.5745 -1.2170
 1326SOL     OW 4601   4.085   2.724   4.823  1.0357  0.5956 -1.0585
 1326SOL    HW1 4602   4.161   2.708   4.760  3.7877  1.9180  1.7065
 1326SOL    HW2 4603   4.005   2.673   4.791  3.4457 -2.1726 -3.2730
 1327SOL     OW 4604   4.527   3.833   0.798 -0.2537  0.8532  0.3481
 1327SOL    HW1 4605   4.547   3.891   0.877  0.6204 -0.1477  0.8965
 1327SOL    HW2 4606   4.612   3.811   0.750 -0.5268 -0.1794  0.3102
 1328SOL     OW 4607   3.080   0.137   1.257  0.8339  0.7501 -0.2589
 1328SOL    HW1 4608   3.107   0.051   1.300  0.4998 -0.8987 -3.0395
 1328SOL    HW2 4609   2.984   0.155   1.277 -0.3672 -1.8648 -2.8345
 1329SOL     OW 4610   0.441   2.031   0.905  0.3188  0.5871 -0.0125
 1329SOL    HW1 4611   0.417   2.071   0.816 -0.5837 -0.6354 -0.3451
 1329SOL    HW2 4612   0.541   2.021   0.910  0.3175 -0.9337 -1.6643
 1330SOL     OW 4613   3.191   2.277   0.978  0.2044  0.3149  0.4180
 1330SOL    HW1 4614   3.129   2.337   0.928  0.6357 -1.4407 -2.4999
 1330SOL    HW2 4615   3.156   2.263   1.071 -2.4108  1.3186 -0.3127
 1331SOL     OW 4616   1.157   0.543   2.129 -0.5367  0.4294 -0.4091
 1331SOL    HW1 4617   1.090   0.494   2.073 -3.6211  3.5064  0.2636
 1331SOL    HW2 4618   1.158   0.504   2.221  0.6527 -1.2806 -1.0905
 1332SOL     OW 4619   4.951   0.180   2.947 -0.9857  0.3523  0.7083
 1332SOL    HW1 4620   4.939   0.129   3.032 -1.8882  1.3023  1.1764
 1332SOL    HW2 4621   4.973   0.275   2.968  0.2146  0.2881 -0.1464
 1333SOL     OW 4622   1.379   3.154   1.644  0.1891 -0.1782  0.3602
 1333SOL    HW1 4623   1.466   3.140   1.692  0.2611  1.6375  0.8217
 1333SOL    HW2 4624   1.306   3.166   1.710 -0.2736 -0.8095 -0.0282
 1334SOL     OW 4625   4.544   0.999   0.103 -0.6460 -0.1912 -0.5040
 1334SOL    HW1 4626   4.558   1.031   0.010 -0.0084 -5.4418 -2.5748
 1334SOL    HW2 4627   4.631   0.969   0.142 -0.8881  1.9085  1.9758
 1335SOL     OW 4628   2.384   1.706   4.247 -0.3892  0.9539 -0.8371
 1335SOL    HW1 4629   2.291   1.685   4.218 -0.4895 -1.7876  1.0641
 1335SOL    HW2 4630   2.422   1.778   4.189 -2.2733 -0.5567 -4.2480
 1336SOL     OW 4631   1.652   0.556   4.459  0.0942  0.2138 -0.5151
 1336SOL    HW1 4632   1.657   0.617   4.380  2.0213 -0.1440 -0.7279
 1336SOL    HW2 4633   1.729   0.576   4.520 -0.7603 -0.2403  0.7325
 1337SOL     OW 4634   3.540   2.637   0.364 -0.7021 -0.9445 -0.1420
 1337SOL    HW1 4635   3.589   2.552   0.344 -0.8727 -0.6543 -2.0003
 1337SOL    HW2 4636   3.457   2.641   0.309  0.9083  1.8219 -2.6766
 1338SOL     OW 4637   4.132   1.896   0.494  0.0096 -1.1464  0.1339
 1338SOL    HW1 4638   4.170   1.829   0.557 -0.5386 -2.1092 -0.5329
 1338SOL    HW2 4639   4.032   1.898   0.505  0.1247  0.8190  1.3551
 1339SOL     OW 4640   2.313   3.276   1.288  0.1596 -0.1309 -0.5812
 1339SOL    HW1 4641   2.261   3.196   1.257 -0.2419  0.2367 -0.8560
 1339SOL    HW2 4642   2.261   3.325   1.358  1.0312 -0.9222  0.6629
 1340SOL     OW 4643   0.501   3.180   0.732 -0.0533 -0.0998  1.1582
 1340SOL    HW1 4644   0.440   3.259   0.725  1.6942  1.4275  2.3255
 1340SOL    HW2 4645   0.493   3.125   0.649 -0.0470  2.2829 -0.5409
 1341SOL     OW 4646   0.478   2.932   4.199  0.4250 -0.2751  0.6750
 1341SOL    HW1 4647   0.445   2.931   4.293  1.4916 -1.1560  1.0552
 1341SOL    HW2 4648   0.400   2.924   4.137 -0.1873 -1.1804  1.5246
 1342SOL     OW 4649   3.908   2.203   1.381 -0.6700  0.0780  0.5824
 1342SOL    HW1 4650   3.898   2.112   1.421  0.2879 -0.2469  0.1221
 1342SOL    HW2 4651   3.919   2.194   1.282  0.8809  0.5709  0.6894
 1343SOL     OW 4652   1.144   0.204   3.251 -1.5988  1.1128  0.1035
 1343SOL    HW1 4653   1.195   0.283   3.218  0.6550 -0.0801  0.5177
 1343SOL    HW2 4654   1.144   0.203   3.351 -1.7931  0.7118  0.1033
 1344SOL     OW 4655   3.644   3.049   3.299 -0.0306 -0.6119 -0.5079
 1344SOL    HW1 4656   3.651   3.141   3.338  0.2874 -0.9627  0.2940
 1344SOL    HW2 4657   3.658   3.053   3.200  1.9848 -0.0298 -0.2512
 1345SOL     OW 4658   0.506   0.801   3.165 -0.2390  0.2679  0.2485
 1345SOL    HW1 4659   0.554   0.713   3.172 -1.1567 -0.4464 -1.5108
 1345SOL    HW2 4660   0.514   0.851   3.251  2.8998 -0.1577  0.3162
 1346SOL     OW 4661   1.422   2.584   0.744  0.3129  0.4770  0.6590
 1346SOL    HW1 4662   1.362   2.600   0.667 -0.9925  0.3468  1.6226
 1346SOL    HW2 4663   1.509   2.632   0.729  0.4347 -0.2756 -1.2719
 1347SOL     OW 4664   1.199   3.248   1.862 -0.3904  0.2639 -0.1486
 1347SOL    HW1 4665   1.119   3.299   1.830 -0.3211  1.1474  1.0274
 1347SOL    HW2 4666   1.260   3.310   1.912  0.5068 -0.6295 -0.1046
 1348SOL     OW 4667   2.496   3.020   1.339 -0.1266 -0.0941  0.2766
 1348SOL    HW1 4668   2.547   3.090   1.389  1.1057 -0.2510 -0.6995
 1348SOL    HW2 4669   2.402   3.016   1.373  0.4603  0.3025  2.0380
 1349SOL     OW 4670   3.023   4.683   1.631  0.0267  0.4216 -0.0851
 1349SOL    HW1 4671   3.086   4.640   1.696  0.5231  1.5081  0.1697
 1349SOL    HW2 4672   2.942   4.625   1.621 -2.1349  2.0668  4.7703
 1350SOL     OW 4673   3.315   2.650   0.244 -0.2036  0.1716 -0.1575
 1350SOL    HW1 4674   3.237   2.630   0.302 -0.6925 -0.6976 -1.0843
 1350SOL    HW2 4675   3.285   2.696   0.161  0.1176 -1.0562 -0.9814
 1351SOL     OW 4676   1.467   4.792   3.459  0.3188  0.0381 -0.5202
 1351SOL    HW1 4677   1.450   4.730   3.535 -1.8854 -0.8742 -1.6634
 1351SOL    HW2 4678   1.391   4.789   3.395  1.4706  1.7861 -2.1176
 1352SOL     OW 4679   3.627   3.035   1.995 -0.2494 -0.5373 -0.7418
 1352SOL    HW1 4680   3.716   3.020   2.038 -0.6244  1.3958  0.8394
 1352SOL    HW2 4681   3.616   3.132   1.974 -1.9752 -0.7445 -0.9161
 1353SOL     OW 4682   2.003   1.174   2.028 -0.3320 -0.1662 -0.5655
 1353SOL    HW1 4683   1.936   1.222   1.971  0.0475  0.1695 -0.7364
 1353SOL    HW2 4684   2.008   1.078   2.000 -1.1518 -0.3310 -0.1711
 1354SOL     OW 4685   3.469   3.689   1.161  0.2736  0.4144 -0.6819
 1354SOL    HW1 4686   3.372   3.711   1.165  0.4491  0.9816  2.4351
 1354SOL    HW2 4687   3.511   3.738   1.085 -1.2423  2.9806  0.0209
 1355SOL     OW 4688   1.742   0.020   3.207 -0.2294 -0.1172 -0.5493
 1355SOL    HW1 4689   1.755   0.029   3.305  0.4964  1.5200 -0.7702
 1355SOL    HW2 4690   1.653   0.059   3.182  0.4510  1.3537 -0.7729
 1356SOL     OW 4691   1.741   3.596   0.859  0.5940 -0.1943  0.6230
 1356SOL    HW1 4692   1.833   3.625   0.886 -0.4271  3.4689  0.5606
 1356SOL    HW2 4693   1.746   3.554   0.768  2.0092  1.6313 -0.2011
 1357SOL     OW 4694   0.887   4.657   0.707 -0.3991  0.3362 -0.0818
 1357SOL    HW1 4695   0.863   4.694   0.797  2.2809 -2.5112  2.0616
 1357SOL    HW2 4696   0.824   4.693   0.638 -3.1753  2.0354  3.0170
 1358SOL     OW 4697   3.494   4.812   1.713 -0.1628  0.7948  0.1917
 1358SOL    HW1 4698   3.498   4.894   1.769 -0.5943 -0.1780  1.7214
 1358SOL    HW2 4699   3.573   4.755   1.732 -1.1593 -0.3399  1.1602
 1359SOL     OW 4700   4.634   4.384   1.271  0.8812 -0.2927  0.3159
 1359SOL    HW1 4701   4.613   4.475   1.308  2.8040 -0.6654  2.5319
 1359SOL    HW2 4702   4.549   4.342   1.239 -0.3526  1.5556  0.9551
 1360SOL     OW 4703   2.512   0.257   2.633  0.2754 -0.9771 -0.2086
 1360SOL    HW1 4704   2.476   0.258   2.540  0.4765 -1.0492 -0.2882
 1360SOL    HW2 4705   2.571   0.178   2.645 -1.0978 -1.9272  0.5016
 1361SOL     OW 4706   2.845   1.527   4.507  0.3905  0.0776 -0.2223
 1361SOL    HW1 4707   2.801   1.482   4.585  0.7380 -0.1587 -0.1599
 1361SOL    HW2 4708   2.791   1.607   4.480  0.6085  0.5436  0.6745
 1362SOL     OW 4709   0.998   3.276   2.923 -0.2755  0.5262  0.0311
 1362SOL    HW1 4710   1.052   3.201   2.962  0.0237  1.4648  1.5609
 1362SOL    HW2 4711   0.982   3.260   2.826  1.1091 -0.7356 -0.0217
 1363SOL     OW 4712   4.385   0.499   1.544 -0.7405  1.4091 -0.4914
 1363SOL    HW1 4713   4.379   0.506   1.644 -1.3323  0.9835 -0.4909
 1363SOL    HW2 4714   4.403   0.590   1.505  1.3841  1.3059  0.1042
 1364SOL     OW 4715   2.895   4.953   2.091 -0.0389  0.2276 -0.1340
 1364SOL    HW1 4716   2.965   4.881   2.092 -0.6563 -0.3802 -0.1544
 1364SOL    HW2 4717   2.811   4.918   2.050 -0.1067  1.2007 -0.8559
 1365SOL     OW 4718   3.760   1.271   3.922  0.1310 -0.5007 -0.1976
 1365SOL    HW1 4719   3.802   1.227   3.842 -2.3296 -2.5559 -0.5042
 1365SOL    HW2 4720   3.780   1.369   3.920 -1.4380 -0.0331 -4.5324
 1366SOL     OW 4721   0.818   3.995   0.108  0.1965  0.2102  0.0806
 1366SOL    HW1 4722   0.848   4.087   0.135 -2.2205  0.6006  1.7870
 1366SOL    HW2 4723   0.723   3.981   0.137  0.2483 -2.6012 -0.7905
 1367SOL     OW 4724   3.480   0.717   0.929  0.1165 -0.5489 -0.0701
 1367SOL    HW1 4725   3.487   0.806   0.975  1.4210 -0.3980 -0.5194
 1367SOL    HW2 4726   3.554   0.657   0.961 -0.0771 -1.0780 -0.5985
 1368SOL     OW 4727   3.117   3.552   3.185 -0.0509  0.5864 -0.4201
 1368SOL    HW1 4728   3.141   3.629   3.125 -1.1250  0.3610 -1.1814
 1368SOL    HW2 4729   3.023   3.524   3.166  0.5963 -1.5189 -0.8228
 1369SOL     OW 4730   0.786   2.894   3.261  0.4831  0.1944 -0.5263
 1369SOL    HW1 4731   0.714   2.861   3.199 -0.2883 -0.2724  0.5716
 1369SOL    HW2 4732   0.744   2.926   3.346  1.5024  1.0016 -0.3113
 1370SOL     OW 4733   4.914   3.812   1.035 -0.1942  1.1052  0.0484
 1370SOL    HW1 4734   4.952   3.740   0.977 -3.7436 -0.5161 -0.5296
 1370SOL    HW2 4735   4.901   3.895   0.982 -0.9642  0.4641 -0.7999
 1371SOL     OW 4736   3.572   2.928   2.341  0.1957 -0.2154  0.5310
 1371SOL    HW1 4737   3.526   2.842   2.319 -0.1107  0.1493 -0.2926
 1371SOL    HW2 4738   3.616   2.965   2.259 -0.7617  1.0554  0.5520
 1372SOL     OW 4739   4.651   3.267   1.439  0.1790 -0.6824 -0.5640
 1372SOL    HW1 4740   4.652   3.317   1.526 -3.0955  1.0942 -1.3761
 1372SOL    HW2 4741   4.742   3.231   1.420  2.1388  2.6832  1.4307
 1373SOL     OW 4742   2.339   0.849   3.894  0.3031 -0.3648 -0.0719
 1373SOL    HW1 4743   2.372   0.830   3.986 -0.4674 -1.0487  0.0722
 1373SOL    HW2 4744   2.390   0.795   3.828  0.0201 -0.8086  0.0725
 1374SOL     OW 4745   1.065   0.462   0.287  1.2210  0.3872  0.0389
 1374SOL    HW1 4746   1.148   0.407   0.296 -0.3562 -2.0542  0.7708
 1374SOL    HW2 4747   0.992   0.423   0.344 -0.4675  2.4021 -0.5896
 1375SOL     OW 4748   4.348   3.501   4.108  0.1559 -0.9935 -0.2906
 1375SOL    HW1 4749   4.286   3.423   4.094 -1.9549  0.7868 -1.7751
 1375SOL    HW2 4750   4.410   3.482   4.183  0.4186 -4.4793 -1.2177
 1376SOL     OW 4751   4.823   4.076   3.966 -0.6409 -0.4352  0.6153
 1376SOL    HW1 4752   4.752   4.134   4.006 -0.2367 -0.8268  1.9526
 1376SOL    HW2 4753   4.885   4.132   3.910 -1.1552  0.1422  0.6169
 1377SOL     OW 4754   4.198   1.855   0.910  0.6657  0.2528 -1.0697
 1377SOL    HW1 4755   4.221   1.952   0.919  4.4383 -0.7103  2.4134
 1377SOL    HW2 4756   4.242   1.818   0.829  1.2645  0.9877 -1.0934
 1378SOL     OW 4757   2.789   3.256   4.701  0.3916 -0.0965  0.4114
 1378SOL    HW1 4758   2.749   3.318   4.633 -0.1312 -0.6506  0.1944
 1378SOL    HW2 4759   2.885   3.239   4.679 -0.0485 -1.1223 -0.8463
 1379SOL     OW 4760   4.000   0.540   3.213 -0.4612  0.4600  0.1388
 1379SOL    HW1 4761   3.987   0.486   3.130 -1.7158 -1.5186  1.5549
 1379SOL    HW2 4762   3.912   0.577   3.243 -0.3865 -0.5325  1.6633
 1380SOL     OW 4763   1.407   1.199   2.909 -0.3280  0.2112  0.0858
 1380SOL    HW1 4764   1.435   1.185   2.814  0.1923 -1.8172  0.4922
 1380SOL    HW2 4765   1.310   1.223   2.911 -1.5897 -3.8418 -0.9021
 1381SOL     OW 4766   1.046   3.846   2.369  0.1976 -0.0002  0.5011
 1381SOL    HW1 4767   0.970   3.807   2.421 -0.0831  0.2312  0.2650
 1381SOL    HW2 4768   1.108   3.773   2.341 -0.1120 -0.2265  0.4086
 1382SOL     OW 4769   2.830   4.307   0.528  0.7618 -0.1790  0.6804
 1382SOL    HW1 4770   2.870   4.226   0.485 -0.6149  0.2157 -1.5210
 1382SOL    HW2 4771   2.732   4.308   0.511 -0.1552 -0.4969  4.8544
 1383SOL     OW 4772   2.992   0.285   3.450  0.0591 -0.1285  0.4964
 1383SOL    HW1 4773   3.067   0.347   3.428  0.1274 -0.8648 -1.6266
 1383SOL    HW2 4774   2.908   0.337   3.465  0.4928  0.5711  0.5098
 1384SOL     OW 4775   1.499   1.538   2.802  0.3379 -0.4843  0.6104
 1384SOL    HW1 4776   1.538   1.497   2.885 -1.6056 -0.5207  1.5583
 1384SOL    HW2 4777   1.413   1.584   2.825 -0.2161 -0.4362 -1.3919
 1385SOL     OW 4778   1.651   4.475   3.582 -0.3317 -0.3751 -0.6527
 1385SOL    HW1 4779   1.678   4.407   3.650 -2.0570  0.9376  1.4921
 1385SOL    HW2 4780   1.727   4.536   3.563 -0.0064 -0.3766  0.6087
 1386SOL     OW 4781   3.264   0.071   3.805 -0.0078  0.3787 -0.5456
 1386SOL    HW1 4782   3.280   0.140   3.875  0.6866  1.9673 -2.1932
 1386SOL    HW2 4783   3.293   0.106   3.716 -0.0059 -1.9042 -1.5183
 1387SOL     OW 4784   3.861   0.483   1.302 -0.4139  0.3566  1.0216
 1387SOL    HW1 4785   3.951   0.496   1.262 -0.5835  2.7699  1.2740
 1387SOL    HW2 4786   3.803   0.431   1.239 -1.1766  5.2815 -2.8917
 1388SOL     OW 4787   4.664   4.462   1.533 -0.0436 -0.4548  0.3909
 1388SOL    HW1 4788   4.621   4.545   1.570  0.6472 -0.0879  0.3946
 1388SOL    HW2 4789   4.751   4.447   1.579  0.5588 -0.3245 -0.6649
 1389SOL     OW 4790   3.536   2.253   3.952 -0.9388 -0.1708  0.0072
 1389SOL    HW1 4791   3.604   2.216   3.889 -2.2569 -0.5404 -1.2500
 1389SOL    HW2 4792   3.444   2.241   3.914 -1.7852 -0.2471  1.9240
 1390SOL     OW 4793   3.612   0.994   3.591  0.5358 -0.5313  0.3019
 1390SOL    HW1 4794   3.607   0.894   3.599  0.5032 -0.4958  0.7737
 1390SOL    HW2 4795   3.708   1.022   3.588  0.5433 -0.5997 -0.1834
 1391SOL     OW 4796   3.778   4.581   0.941 -0.5540 -0.5088  0.3114
 1391SOL    HW1 4797   3.842   4.623   1.005 -0.1641  0.0805 -0.4450
 1391SOL    HW2 4798   3.718   4.518   0.990 -2.6976  2.5610  1.9131
 1392SOL     OW 4799   3.417   1.865   1.269 -0.0864  0.1356 -1.3335
 1392SOL    HW1 4800   3.362   1.918   1.333  0.4868 -1.3409  0.4531
 1392SOL    HW2 4801   3.367   1.782   1.242  0.7432 -0.6166 -0.6249
 1393SOL     OW 4802   3.116   4.801   2.261  0.5068  1.2733 -0.2196
 1393SOL    HW1 4803   3.154   4.882   2.306  0.8252  0.6729  0.6091
 1393SOL    HW2 4804   3.113   4.725   2.326 -1.7042  1.1725 -0.3667
 1394SOL     OW 4805   3.328   4.531   0.566  1.1383  0.7016 -0.4236
 1394SOL    HW1 4806   3.245   4.513   0.620  1.3372  0.0536 -0.3198
 1394SOL    HW2 4807   3.313   4.503   0.471  1.9165 -1.4499  0.0332
 1395SOL     OW 4808   4.964   1.808   1.852  0.6421 -0.4606 -0.4183
 1395SOL    HW1 4809   4.888   1.786   1.913  1.1926 -2.0896 -0.2704
 1395SOL    HW2 4810   4.929   1.826   1.760 -0.1513  1.5712  0.2238
 1396SOL     OW 4811   4.963   0.361   0.984  0.4773  0.6323  0.2899
 1396SOL    HW1 4812   4.913   0.335   1.067 -0.7973  0.5352 -0.4860
 1396SOL    HW2 4813   5.060   0.373   1.006  0.3770 -0.5886  1.5385
 1397SOL     OW 4814   1.085   0.115   1.481  0.2006  1.0232  0.1588
 1397SOL    HW1 4815   1.014   0.048   1.502  1.5949 -0.3901  0.4886
 1397SOL    HW2 4816   1.047   0.207   1.492 -1.4144  0.3194  0.8661
 1398SOL     OW 4817   0.231   4.420   1.790  0.2900 -0.2248  0.8604
 1398SOL    HW1 4818   0.251   4.508   1.833 -1.8462  1.0099 -0.4597
 1398SOL    HW2 4819   0.273   4.417   1.699  3.3642 -2.1316  2.1723
 1399SOL     OW 4820   0.458   2.188   4.617  0.5254 -0.2927  0.6443
 1399SOL    HW1 4821   0.372   2.217   4.658  1.2127  0.5856  1.5179
 1399SOL    HW2 4822   0.473   2.237   4.531 -0.2101 -1.0323  0.0831
 1400SOL     OW 4823   4.574   3.748   2.531 -0.1946  0.9135  0.2255
 1400SOL    HW1 4824   4.494   3.808   2.536  0.1372  1.3549  0.3336
 1400SOL    HW2 4825   4.552   3.669   2.474 -1.8785 -0.8148  3.0250
 1401SOL     OW 4826   2.027   1.627   2.922  0.3095  0.1041  1.1449
 1401SOL    HW1 4827   2.081   1.648   2.841 -0.6347  0.1099  0.4907
 1401SOL    HW2 4828   2.009   1.711   2.973 -1.5694  0.6223 -0.2573
 1402SOL     OW 4829   1.785   1.274   3.203  0.3286 -0.0670  0.1137
 1402SOL    HW1 4830   1.716   1.261   3.275  0.2806 -1.6334 -0.1641
 1402SOL    HW2 4831   1.876   1.258   3.241  0.2231 -2.2498 -0.3897
 1403SOL     OW 4832   0.051   3.966   2.962 -0.0476  0.1804 -0.0839
 1403SOL    HW1 4833  -0.005   3.923   2.892  1.3840 -1.4506 -0.3009
 1403SOL    HW2 4834   0.140   3.990   2.923  0.4096  0.1642  0.9172
 1404SOL     OW 4835   2.403   4.462   3.798  0.5802  0.1873 -0.1427
 1404SOL    HW1 4836   2.309   4.429   3.811  0.8733  0.1789  2.4758
 1404SOL    HW2 4837   2.429   4.518   3.877  3.4310 -1.4236  0.1944
 1405SOL     OW 4838   4.920   0.967   4.933 -0.0503  0.6459  0.4063
 1405SOL    HW1 4839   5.017   0.954   4.953 -0.4694 -0.1250  2.1492
 1405SOL    HW2 4840   4.897   0.921   4.848  0.7501 -0.7497  0.9139
 1406SOL     OW 4841   3.360   2.008   0.347  0.1580 -0.4330  0.1989
 1406SOL    HW1 4842   3.295   1.931   0.351  0.1897 -0.3822  2.3577
 1406SOL    HW2 4843   3.385   2.036   0.439  0.9140  1.5671 -0.5625
 1407SOL     OW 4844   0.112   1.672   2.064 -0.7057  0.1759  0.8516
 1407SOL    HW1 4845   0.108   1.573   2.047  1.3606  0.5045 -2.4595
 1407SOL    HW2 4846   0.162   1.716   1.990 -1.4405  3.7585  2.2976
 1408SOL     OW 4847   2.800   4.500   1.569 -0.2625  0.1178 -0.4687
 1408SOL    HW1 4848   2.703   4.520   1.559 -0.9405 -1.4206  2.1344
 1408SOL    HW2 4849   2.821   4.413   1.526  0.1891  0.8491 -1.7748
 1409SOL     OW 4850   1.098   4.591   0.961 -0.0839 -0.4133  0.0130
 1409SOL    HW1 4851   0.998   4.590   0.957 -0.0964 -0.5243  0.3291
 1409SOL    HW2 4852   1.134   4.541   0.882 -0.3570 -3.7378  1.8180
 1410SOL     OW 4853   3.279   4.225   0.339 -0.8381  0.8936 -0.4850
 1410SOL    HW1 4854   3.357   4.227   0.277 -0.5721  1.0191 -0.1499
 1410SOL    HW2 4855   3.232   4.313   0.337 -0.5945  1.0313 -0.2143
 1411SOL     OW 4856   4.678   0.586   1.172  0.3652 -0.3828 -0.5606
 1411SOL    HW1 4857   4.773   0.591   1.203 -0.7576  0.5182  3.3307
 1411SOL    HW2 4858   4.617   0.605   1.249 -2.9937  1.3502 -3.3532
 1412SOL     OW 4859   0.607   0.369   1.596 -0.2946 -0.3498 -0.1857
 1412SOL    HW1 4860   0.584   0.355   1.693  3.0700 -0.6004  0.7011
 1412SOL    HW2 4861   0.683   0.433   1.589 -0.1148 -0.7506 -2.6358
 1413SOL     OW 4862   4.228   2.466   2.143 -0.0295 -0.3152 -0.0420
 1413SOL    HW1 4863   4.297   2.397   2.164 -0.1078  0.0089  1.4151
 1413SOL    HW2 4864   4.137   2.424   2.146  0.0656 -0.6614 -1.5906
 1414SOL     OW 4865   0.052   4.842   1.664  0.4474 -0.2860  0.3507
 1414SOL    HW1 4866   0.083   4.927   1.708 -0.7522  0.3775 -0.0367
 1414SOL    HW2 4867   0.035   4.773   1.734  1.5865 -0.2746  0.6614
 1415SOL     OW 4868   3.501   3.321   1.856  0.0396  0.5681 -0.7354
 1415SOL    HW1 4869   3.548   3.395   1.903  1.9537 -0.6057 -0.6868
 1415SOL    HW2 4870   3.500   3.338   1.758 -0.4486  1.1323 -0.6361
 1416SOL     OW 4871   0.193   2.010   1.106 -0.2026 -0.3087 -0.3657
 1416SOL    HW1 4872   0.248   2.071   1.163 -0.2131 -0.7037  0.0779
 1416SOL    HW2 4873   0.237   1.998   1.017  0.8857 -1.2827  0.2711
 1417SOL     OW 4874   2.397   3.194   4.361  0.1160  1.1747 -0.2083
 1417SOL    HW1 4875   2.419   3.098   4.343 -2.0752  0.7232 -0.7212
 1417SOL    HW2 4876   2.458   3.253   4.308  1.6480  0.1025  0.2908
 1418SOL     OW 4877   4.764   1.708   1.260  1.1649 -0.0138 -0.6395
 1418SOL    HW1 4878   4.718   1.744   1.341  0.7098  0.4562 -1.0940
 1418SOL    HW2 4879   4.766   1.608   1.264  2.1770  0.0272  0.4980
 1419SOL     OW 4880   0.754   3.179   4.787 -0.1097 -0.1720  0.0552
 1419SOL    HW1 4881   0.838   3.198   4.736  1.4103  0.2808  2.5293
 1419SOL    HW2 4882   0.737   3.080   4.786 -0.7335 -0.0850 -2.1278
 1420SOL     OW 4883   4.354   3.945   4.099 -0.0156  0.3808  0.3754
 1420SOL    HW1 4884   4.260   3.960   4.065 -0.4151  0.9043  1.6625
 1420SOL    HW2 4885   4.391   3.863   4.056 -0.8659  0.4560 -0.5607
 1421SOL     OW 4886   2.037   1.518   3.257  0.1212  0.3315  1.2063
 1421SOL    HW1 4887   1.963   1.515   3.324 -0.4115  1.8785  0.7341
 1421SOL    HW2 4888   2.022   1.596   3.195  0.5849 -1.0323 -0.7139
 1422SOL     OW 4889   0.249   0.152   4.199  0.2098 -0.2313  1.4156
 1422SOL    HW1 4890   0.265   0.229   4.261  1.0016  0.3504  0.5219
 1422SOL    HW2 4891   0.151   0.134   4.193  0.1483 -0.7711  3.3706
 1423SOL     OW 4892   0.631   1.364   2.794  0.1776  0.1323  0.6525
 1423SOL    HW1 4893   0.560   1.416   2.747 -1.2430 -0.4600  2.0644
 1423SOL    HW2 4894   0.663   1.414   2.874 -1.2947 -1.1226  2.0994
 1424SOL     OW 4895   1.840   2.381   0.696 -0.4514  0.4317  0.1392
 1424SOL    HW1 4896   1.839   2.454   0.628 -0.8086  2.1648  1.9190
 1424SOL    HW2 4897   1.811   2.417   0.785  0.9366 -1.5037  1.4731
 1425SOL     OW 4898   2.884   3.231   1.956  0.4028 -0.2891 -0.8410
 1425SOL    HW1 4899   2.827   3.160   1.916 -1.8304 -0.4757  2.3474
 1425SOL    HW2 4900   2.971   3.191   1.986  0.5779 -0.8886 -2.0812
 1426SOL     OW 4901   1.217   2.302   2.301  0.0233 -0.3599 -0.7102
 1426SOL    HW1 4902   1.264   2.346   2.378 -0.1543  2.5620 -2.1353
 1426SOL    HW2 4903   1.249   2.208   2.292  0.3370 -0.6887  2.6414
 1427SOL     OW 4904   0.089   1.923   4.137 -0.0317 -0.1616  0.3416
 1427SOL    HW1 4905   0.145   1.979   4.077  0.6330  1.5609  2.4606
 1427SOL    HW2 4906   0.048   1.848   4.084 -2.4697  3.2082 -3.1194
 1428SOL     OW 4907   1.714   2.512   2.885  0.7047  0.2812 -0.2936
 1428SOL    HW1 4908   1.703   2.432   2.944  0.4180 -0.7401 -1.6734
 1428SOL    HW2 4909   1.668   2.591   2.926 -0.2630 -0.6291  0.4128
 1429SOL     OW 4910   2.497   2.903   0.515  0.1790 -1.2581  0.2882
 1429SOL    HW1 4911   2.535   2.953   0.593 -2.2227 -1.5942  1.7926
 1429SOL    HW2 4912   2.398   2.894   0.527 -0.8301  1.0795 -4.1710
 1430SOL     OW 4913   1.732   0.102   2.161  0.1285 -0.0579  0.1921
 1430SOL    HW1 4914   1.740   0.080   2.064  1.1787 -2.4593  0.7583
 1430SOL    HW2 4915   1.671   0.036   2.205  0.7933  0.1158  1.4218
 1431SOL     OW 4916   4.181   3.024   3.881 -0.3532  0.0367  0.8051
 1431SOL    HW1 4917   4.256   3.049   3.821  0.7864 -0.9500  1.7771
 1431SOL    HW2 4918   4.099   3.076   3.855  0.0404 -0.4904 -1.6698
 1432SOL     OW 4919   1.734   4.100   1.683 -0.6330  0.6440  0.5263
 1432SOL    HW1 4920   1.748   4.137   1.775 -3.6191  0.5898  1.1016
 1432SOL    HW2 4921   1.636   4.086   1.668  0.0068 -2.9092 -1.2858
 1433SOL     OW 4922   0.652   1.114   3.219 -0.4686  0.5654 -0.4643
 1433SOL    HW1 4923   0.727   1.177   3.242  0.2592 -1.3118  2.8343
 1433SOL    HW2 4924   0.566   1.150   3.255 -0.4802  0.7804 -0.6992
 1434SOL     OW 4925   1.474   1.216   3.229  0.3801 -0.1614  0.7432
 1434SOL    HW1 4926   1.505   1.132   3.185  0.4942 -0.5727  1.5859
 1434SOL    HW2 4927   1.442   1.281   3.160  0.5390 -0.7959  0.0698
 1435SOL     OW 4928   3.884   2.094   4.825 -0.1974  0.5413 -0.4713
 1435SOL    HW1 4929   3.891   2.100   4.726 -1.2256  2.0609 -0.4946
 1435SOL    HW2 4930   3.787   2.097   4.852  0.0692  0.2435  0.5768
 1436SOL     OW 4931   1.346   1.219   2.553  0.1431 -0.5319 -0.1152
 1436SOL    HW1 4932   1.292   1.252   2.475 -1.3360  0.3128  1.2027
 1436SOL    HW2 4933   1.314   1.129   2.581  1.0733 -1.1004 -0.8213
 1437SOL     OW 4934   4.472   2.246   3.830  0.1245 -0.6942  0.4395
 1437SOL    HW1 4935   4.519   2.247   3.918 -2.4424 -0.8611  1.9209
 1437SOL    HW2 4936   4.382   2.203   3.841 -2.0571  2.9502 -1.2504
 1438SOL     OW 4937   0.694   2.277   1.510 -0.1452 -0.1429  0.2155
 1438SOL    HW1 4938   0.766   2.342   1.488  1.2340 -1.4462  0.7027
 1438SOL    HW2 4939   0.668   2.287   1.607  1.1978 -1.3308  0.7269
 1439SOL     OW 4940   0.127   3.290   2.363 -0.1310 -0.0043  0.3376
 1439SOL    HW1 4941   0.101   3.366   2.303  0.9696 -1.2140 -1.7794
 1439SOL    HW2 4942   0.225   3.293   2.380 -0.2346 -0.4174  1.0549
 1440SOL     OW 4943   2.439   3.302   4.769 -0.1989  0.3756 -0.9620
 1440SOL    HW1 4944   2.450   3.390   4.722  3.9950  2.5344  3.2403
 1440SOL    HW2 4945   2.490   3.231   4.721  0.7015  1.5302 -1.7608
 1441SOL     OW 4946   2.504   1.321   4.991  0.7717 -0.0890  0.2457
 1441SOL    HW1 4947   2.422   1.379   4.994  0.3474 -0.5823 -1.0722
 1441SOL    HW2 4948   2.536   1.305   5.084 -0.7854 -0.0803  0.8261
 1442SOL     OW 4949   2.901   1.560   1.358  0.2247  0.4134 -0.0769
 1442SOL    HW1 4950   2.869   1.466   1.347 -1.1967  0.9659 -1.0034
 1442SOL    HW2 4951   2.999   1.560   1.378  0.2657 -1.2463 -0.1193
 1443SOL     OW 4952   3.822   3.232   1.849  0.0076 -0.4357  0.2643
 1443SOL    HW1 4953   3.772   3.299   1.794 -3.0175 -2.3326  0.4598
 1443SOL    HW2 4954   3.895   3.191   1.795 -2.2665 -1.5672 -2.1211
 1444SOL     OW 4955   4.765   4.243   3.346  0.2306  0.5413 -0.5705
 1444SOL    HW1 4956   4.808   4.163   3.387  1.0881  1.0381 -0.4663
 1444SOL    HW2 4957   4.810   4.264   3.259 -3.0485 -1.9028 -3.1223
 1445SOL     OW 4958   0.463   3.365   1.495  0.2266 -0.4790  0.3089
 1445SOL    HW1 4959   0.500   3.408   1.413  2.4142  2.2184  2.5445
 1445SOL    HW2 4960   0.530   3.303   1.534 -0.5257 -1.2118  0.4733
 1446SOL     OW 4961   0.739   0.262   1.239  0.4974  0.0871 -0.6141
 1446SOL    HW1 4962   0.678   0.269   1.160  2.0789 -2.5949 -2.2325
 1446SOL    HW2 4963   0.800   0.342   1.241  1.1436 -0.2773 -2.8312
 1447SOL     OW 4964   0.742   3.154   0.530 -0.0635  0.8132  0.2053
 1447SOL    HW1 4965   0.751   3.147   0.629  0.8994  1.2026  0.1556
 1447SOL    HW2 4966   0.671   3.091   0.498 -0.0782  0.3741  1.0880
 1448SOL     OW 4967   0.703   0.487   3.966  0.2703  0.4470 -0.0878
 1448SOL    HW1 4968   0.631   0.436   3.919 -1.0328  2.3713 -0.2718
 1448SOL    HW2 4969   0.773   0.514   3.899 -0.7926  1.8281 -0.7057
 1449SOL     OW 4970   4.040   3.178   1.682  0.7001 -0.0514 -0.7840
 1449SOL    HW1 4971   4.136   3.172   1.710  0.6047  2.9883  0.5467
 1449SOL    HW2 4972   4.036   3.190   1.583  1.7128 -0.0675 -0.8434
 1450SOL     OW 4973   0.424   3.780   3.810  0.2433  0.6899  0.2803
 1450SOL    HW1 4974   0.498   3.809   3.870  0.0432  5.1398 -1.2842
 1450SOL    HW2 4975   0.355   3.732   3.864  3.1997 -1.8649  2.1276
 1451SOL     OW 4976   0.562   0.366   3.697  0.0153  0.2617 -0.7156
 1451SOL    HW1 4977   0.519   0.285   3.738  0.1605  0.0617 -0.9548
 1451SOL    HW2 4978   0.524   0.381   3.606 -1.6750  1.7984  0.1763
 1452SOL     OW 4979   1.107   3.582   0.123  0.3218 -0.1536 -0.6372
 1452SOL    HW1 4980   1.129   3.509   0.059  1.3596  1.1867 -1.8936
 1452SOL    HW2 4981   1.174   3.656   0.113 -1.8410  1.8963 -0.9290
 1453SOL     OW 4982   3.137   0.842   4.739 -0.3709 -0.0752  0.7234
 1453SOL    HW1 4983   3.192   0.906   4.794 -0.5762  1.9199 -1.2499
 1453SOL    HW2 4984   3.044   0.840   4.775 -0.8196  2.1163 -0.1273
 1454SOL     OW 4985   4.997   0.571   3.390 -0.2040 -0.4719 -0.5001
 1454SOL    HW1 4986   4.997   0.586   3.489  0.3394 -2.5595 -0.1309
 1454SOL    HW2 4987   4.917   0.616   3.350  0.2442  1.4990  0.6685
 1455SOL     OW 4988   0.745   0.019   4.954  0.8064  0.6237  0.1629
 1455SOL    HW1 4989   0.660  -0.009   4.909  1.1682  0.1578 -0.2361
 1455SOL    HW2 4990   0.736   0.114   4.983 -0.7002 -0.0530  2.1778
 1456SOL     OW 4991   1.479   4.703   0.937 -0.6904 -0.3094  0.3446
 1456SOL    HW1 4992   1.482   4.794   0.895 -1.3187  0.0745  1.1032
 1456SOL    HW2 4993   1.416   4.644   0.884 -1.4006  0.1399  0.6727
 1457SOL     OW 4994   4.862   3.143   4.283  0.4590 -0.5162 -0.4289
 1457SOL    HW1 4995   4.810   3.227   4.266 -0.8033 -1.5433 -2.0273
 1457SOL    HW2 4996   4.802   3.076   4.327  0.7489 -1.3536 -1.2891
 1458SOL     OW 4997   3.851   2.723   3.191 -1.1634  0.0266 -0.1264
 1458SOL    HW1 4998   3.896   2.638   3.164  1.2476  0.9123  0.8113
 1458SOL    HW2 4999   3.804   2.762   3.111 -2.3183 -2.1177 -0.5665
 1459SOL     OW 5000   4.798   3.850   2.660 -0.5255 -0.6528 -0.5955
 1459SOL    HW1 5001   4.718   3.804   2.622  0.3337 -1.4901 -1.4312
 1459SOL    HW2 5002   4.852   3.890   2.586  0.2334 -0.7726 -0.1178
 1460SOL     OW 5003   1.352   2.027   2.919  0.6053  0.2892  0.3680
 1460SOL    HW1 5004   1.401   1.961   2.862  0.2695  1.3695 -1.2350
 1460SOL    HW2 5005   1.374   2.010   3.015  2.4458 -0.5918 -0.1559
 1461SOL     OW 5006   2.928   3.525   4.558  0.0735 -0.6346  0.4928
 1461SOL    HW1 5007   2.847   3.569   4.517  0.0156  0.3713  1.6220
 1461SOL    HW2 5008   2.987   3.595   4.597  1.8327 -1.3111 -0.8442
 1462SOL     OW 5009   1.476   3.306   0.815 -0.1561 -0.1437  0.1972
 1462SOL    HW1 5010   1.533   3.370   0.867  0.7538  0.6068 -1.6631
 1462SOL    HW2 5011   1.431   3.355   0.740 -1.5408 -1.1814  0.3021
 1463SOL     OW 5012   4.603   2.947   4.368  0.0162 -1.0354  0.1345
 1463SOL    HW1 5013   4.530   2.912   4.309 -0.9619 -1.1414  1.3787
 1463SOL    HW2 5014   4.563   2.994   4.446  1.2904 -1.3690  1.0108
 1464SOL     OW 5015   2.694   0.530   0.040  0.2005 -0.0522 -0.0103
 1464SOL    HW1 5016   2.674   0.443   0.084  0.6894  0.8250  2.0442
 1464SOL    HW2 5017   2.759   0.516  -0.034  0.1991 -1.4425  0.2347
 1465SOL     OW 5018   1.915   2.930   4.364 -0.6888  0.1578 -0.4227
 1465SOL    HW1 5019   1.847   2.885   4.307  0.2747 -0.5424 -1.0602
 1465SOL    HW2 5020   2.007   2.909   4.329 -0.1273  0.7315  0.6527
 1466SOL     OW 5021   1.739   2.020   4.943  0.2674 -1.0313 -0.0106
 1466SOL    HW1 5022   1.728   2.119   4.951  0.8508 -0.8476 -1.2806
 1466SOL    HW2 5023   1.786   1.985   5.024 -0.4585 -0.3696  0.7205
 1467SOL     OW 5024   0.157   4.084   4.766 -0.0947  0.1358  0.6017
 1467SOL    HW1 5025   0.130   3.989   4.757  1.0034 -0.2414  1.1136
 1467SOL    HW2 5026   0.186   4.102   4.860 -1.0714  1.1977  0.7335
 1468SOL     OW 5027   4.674   3.111   2.492  0.3099  0.0683  0.6650
 1468SOL    HW1 5028   4.758   3.144   2.449  1.7266 -1.7690  1.8587
 1468SOL    HW2 5029   4.628   3.187   2.537  1.5566  1.0567  0.3372
 1469SOL     OW 5030   4.779   0.665   3.257  0.1196  0.5709  0.0980
 1469SOL    HW1 5031   4.772   0.639   3.160  1.6590  5.1264 -1.4771
 1469SOL    HW2 5032   4.704   0.726   3.281 -0.2195 -0.4683  1.8763
 1470SOL     OW 5033   3.538   1.443   1.972 -0.0817 -0.2964 -0.5415
 1470SOL    HW1 5034   3.521   1.490   1.885 -0.5681 -0.5640 -0.5944
 1470SOL    HW2 5035   3.617   1.383   1.962 -0.6964 -1.0376 -1.0845
 1471SOL     OW 5036   2.572   1.419   2.902  1.1027 -0.2511  0.8692
 1471SOL    HW1 5037   2.480   1.457   2.891  0.9514 -0.1097  2.4398
 1471SOL    HW2 5038   2.567   1.319   2.897  0.7688 -0.2721  1.5224
 1472SOL     OW 5039   2.159   0.873   0.344  0.2183 -0.9645 -0.9034
 1472SOL    HW1 5040   2.114   0.808   0.284  1.2112 -0.8793 -1.7726
 1472SOL    HW2 5041   2.173   0.959   0.296  1.4006 -1.0336 -0.7218
 1473SOL     OW 5042   2.735   4.247   4.493 -0.1300 -0.3497 -0.5732
 1473SOL    HW1 5043   2.745   4.183   4.417  2.2539  2.4792 -2.8555
 1473SOL    HW2 5044   2.661   4.311   4.473 -0.5056 -0.5187  0.2482
 1474SOL     OW 5045   0.257   1.561   2.252 -0.3911  0.3627 -0.0726
 1474SOL    HW1 5046   0.263   1.469   2.214  0.9229  1.2932 -2.3030
 1474SOL    HW2 5047   0.205   1.619   2.190  0.4858  1.5902  0.3079
 1475SOL     OW 5048   2.613   2.000   0.933  0.2696 -0.2466 -0.7751
 1475SOL    HW1 5049   2.708   2.015   0.959  0.1424 -1.2197  0.3223
 1475SOL    HW2 5050   2.589   1.904   0.945 -0.8969  0.0110 -0.8929
 1476SOL     OW 5051   1.664   3.230   4.018 -0.1198  0.6826 -0.0370
 1476SOL    HW1 5052   1.629   3.140   3.991 -2.0353  1.1445  0.7723
 1476SOL    HW2 5053   1.623   3.257   4.105  0.5617  2.2734 -0.1748
 1477SOL     OW 5054   3.752   0.620   3.819  0.9115 -0.5346  0.1519
 1477SOL    HW1 5055   3.739   0.688   3.890  1.0228  2.8351 -2.7576
 1477SOL    HW2 5056   3.850   0.607   3.801  0.8888  0.7224 -1.0833
 1478SOL     OW 5057   1.858   4.973   3.663 -0.5144  0.6605  0.3109
 1478SOL    HW1 5058   1.807   4.892   3.693  1.3170 -1.1705 -1.2291
 1478SOL    HW2 5059   1.944   4.979   3.715  1.0812 -0.5929 -2.0210
 1479SOL     OW 5060   0.845   0.241   3.227 -0.1851  0.0384 -0.9761
 1479SOL    HW1 5061   0.942   0.227   3.246 -0.0073  1.9109 -0.3411
 1479SOL    HW2 5062   0.829   0.231   3.129  0.8464  0.7175 -1.2312
 1480SOL     OW 5063   4.953   2.956   2.660  0.4598 -0.4527 -0.2892
 1480SOL    HW1 5064   5.021   3.010   2.611 -1.1918  1.4185 -0.6557
 1480SOL    HW2 5065   4.988   2.932   2.750  1.6942  0.2352 -0.5573
 1481SOL     OW 5066   4.499   1.272   4.723  0.2432 -0.0962  0.6529
 1481SOL    HW1 5067   4.442   1.352   4.743 -2.8951 -1.8794 -0.4594
 1481SOL    HW2 5068   4.555   1.250   4.804 -0.0798  2.1747  1.5621
 1482SOL     OW 5069   0.004   3.955   4.468 -0.1030 -0.2435 -0.7030
 1482SOL    HW1 5070  -0.023   4.051   4.454 -0.3129 -0.3552 -1.0983
 1482SOL    HW2 5071   0.047   3.920   4.385 -1.4638 -0.9581 -1.1418
 1483SOL     OW 5072   0.584   2.841   2.158  0.7076  0.9956  0.1958
 1483SOL    HW1 5073   0.614   2.802   2.245  0.1180  0.6642  0.2582
 1483SOL    HW2 5074   0.486   2.825   2.146  0.8584  0.6706 -0.7156
 1484SOL     OW 5075   3.418   3.147   3.102  0.1300 -0.3717  0.1297
 1484SOL    HW1 5076   3.407   3.246   3.113  1.1636 -0.1129 -0.9342
 1484SOL    HW2 5077   3.419   3.103   3.192  0.6166  0.7013  0.6629
 1485SOL     OW 5078   3.050   4.691   2.016  0.6879  0.5783  0.1487
 1485SOL    HW1 5079   3.068   4.723   2.108 -0.2277  1.4158  0.0476
 1485SOL    HW2 5080   3.124   4.720   1.955  0.2818  1.8073  0.2239
 1486SOL     OW 5081   2.241   0.024   0.606  0.1151  0.5780  0.0517
 1486SOL    HW1 5082   2.154  -0.020   0.588  0.5740 -0.8063  1.0443
 1486SOL    HW2 5083   2.300   0.018   0.525 -0.1048  0.0239 -0.0687
 1487SOL     OW 5084   3.253   2.299   4.550  0.0244  0.2532 -0.0103
 1487SOL    HW1 5085   3.226   2.258   4.463 -0.5386  3.5357 -1.5403
 1487SOL    HW2 5086   3.177   2.294   4.614  0.2989 -1.8115  0.2189
 1488SOL     OW 5087   4.207   4.366   2.794 -1.0668  0.0317 -0.0237
 1488SOL    HW1 5088   4.278   4.323   2.738  0.3304 -0.4155  1.9975
 1488SOL    HW2 5089   4.215   4.335   2.888 -2.5397  1.7186  0.7202
 1489SOL     OW 5090   2.313   4.163   1.067 -0.4352  0.1700 -1.0711
 1489SOL    HW1 5091   2.314   4.262   1.058 -0.8855  0.0926 -2.0193
 1489SOL    HW2 5092   2.383   4.123   1.007 -0.8719 -0.1389 -1.3743
 1490SOL     OW 5093   2.201   2.412   3.060  0.4231 -0.2215 -0.5153
 1490SOL    HW1 5094   2.110   2.409   3.018 -0.3219  1.1014  0.8835
 1490SOL    HW2 5095   2.270   2.414   2.988 -0.6727 -0.6786 -1.6262
 1491SOL     OW 5096   4.645   3.736   3.745 -0.4933 -0.2292 -0.2174
 1491SOL    HW1 5097   4.659   3.649   3.697 -1.0264 -1.1043  1.1528
 1491SOL    HW2 5098   4.557   3.775   3.716  0.4895  0.7388 -2.0833
 1492SOL     OW 5099   2.473   0.765   1.537  0.3714  0.2037 -0.0610
 1492SOL    HW1 5100   2.568   0.744   1.560  0.7151  2.9075  1.3362
 1492SOL    HW2 5101   2.413   0.736   1.612  0.2772 -0.0636 -0.2385
 1493SOL     OW 5102   2.096   1.680   2.170  0.5050 -0.2121 -0.1491
 1493SOL    HW1 5103   2.067   1.590   2.137  2.8716 -0.2980 -2.2464
 1493SOL    HW2 5104   2.186   1.702   2.133  0.2803  2.7890  0.8155
 1494SOL     OW 5105   0.166   2.683   0.470 -0.0593 -0.1340  0.0776
 1494SOL    HW1 5106   0.142   2.778   0.488 -1.7063 -0.7921  1.6865
 1494SOL    HW2 5107   0.101   2.644   0.405  0.5127 -0.2159 -0.4529
 1495SOL     OW 5108   3.323   3.829   1.419  0.4655 -0.5829 -0.1049
 1495SOL    HW1 5109   3.312   3.929   1.415 -0.1395 -0.6396  0.0058
 1495SOL    HW2 5110   3.415   3.807   1.451  1.0925 -0.0709 -1.4999
 1496SOL     OW 5111   3.274   4.347   1.224 -0.6266  0.3657 -0.2230
 1496SOL    HW1 5112   3.233   4.388   1.142 -0.2649  0.2724 -0.4539
 1496SOL    HW2 5113   3.278   4.415   1.297  0.1474  0.8048 -0.6642
 1497SOL     OW 5114   3.984   4.982   1.724  0.1473 -0.4138 -0.0694
 1497SOL    HW1 5115   3.895   4.973   1.768 -0.1894 -0.4756 -0.7453
 1497SOL    HW2 5116   4.057   4.968   1.791 -0.3142  2.2604  1.0839
 1498SOL     OW 5117   3.765   3.889   3.546 -0.4636 -0.0247  0.2409
 1498SOL    HW1 5118   3.820   3.910   3.465 -1.4301 -0.3635 -0.5272
 1498SOL    HW2 5119   3.725   3.973   3.582  0.9963  0.3124  1.1611
 1499SOL     OW 5120   3.121   0.892   0.542  0.2852  0.0595 -0.0482
 1499SOL    HW1 5121   3.153   0.846   0.460  1.0576 -0.7170  0.6673
 1499SOL    HW2 5122   3.081   0.980   0.518  0.7999 -0.0107 -1.2120
 1500SOL     OW 5123   0.921   3.432   3.305  1.0465  0.2065 -0.3409
 1500SOL    HW1 5124   0.956   3.526   3.304  2.5037 -0.3256 -0.5401
 1500SOL    HW2 5125   0.891   3.409   3.398  1.5400  0.5565 -0.0923
 1501SOL     OW 5126   1.225   1.670   0.718 -0.1808 -0.3439 -0.7874
 1501SOL    HW1 5127   1.287   1.660   0.797  0.9375  0.1676 -1.5744
 1501SOL    HW2 5128   1.242   1.595   0.654  1.7434  1.3562 -2.3846
 1502SOL     OW 5129   2.416   3.696   1.290  0.3057  0.2797 -0.4249
 1502SOL    HW1 5130   2.408   3.758   1.212 -0.0796  1.6654  0.6745
 1502SOL    HW2 5131   2.507   3.704   1.330  0.1141  0.4550 -0.0207
 1503SOL     OW 5132   3.936   1.153   3.723  0.9851 -0.4750  0.1217
 1503SOL    HW1 5133   4.012   1.147   3.789 -1.5207 -1.4944  3.1763
 1503SOL    HW2 5134   3.933   1.245   3.685  0.8049  1.3044  3.9301
 1504SOL     OW 5135   3.959   4.477   3.462 -1.1539 -0.8977  0.6653
 1504SOL    HW1 5136   4.021   4.475   3.384 -1.5445  1.2954  0.2279
 1504SOL    HW2 5137   4.011   4.497   3.546 -0.7897 -2.8878  0.9777
 1505SOL     OW 5138   3.540   1.594   4.132 -0.4959 -0.1737 -0.5397
 1505SOL    HW1 5139   3.545   1.607   4.034  0.7600  1.2367 -0.3189
 1505SOL    HW2 5140   3.501   1.503   4.152  1.1480 -1.3411 -2.3478
 1506SOL     OW 5141   4.663   3.190   0.040 -1.0946  0.3995  0.0799
 1506SOL    HW1 5142   4.727   3.264   0.015 -2.6202  1.4664 -0.8225
 1506SOL    HW2 5143   4.696   3.145   0.123 -0.6566  2.8120  1.3094
 1507SOL     OW 5144   1.391   4.802   3.119 -0.7139 -0.3023  0.4354
 1507SOL    HW1 5145   1.347   4.813   3.030 -0.1809  0.8583  0.3092
 1507SOL    HW2 5146   1.454   4.878   3.136  0.7372 -1.5568  0.9231
 1508SOL     OW 5147   2.642   4.632   4.177  0.4988  0.3140  0.3617
 1508SOL    HW1 5148   2.698   4.569   4.124  0.4450  0.4231  0.1719
 1508SOL    HW2 5149   2.659   4.619   4.274 -0.9038 -1.3296  0.4452
 1509SOL     OW 5150   0.965   3.327   4.680  0.1225  0.3517 -0.0047
 1509SOL    HW1 5151   0.961   3.404   4.743 -3.7789 -2.7647  4.2060
 1509SOL    HW2 5152   1.053   3.280   4.691  1.5878  2.6924 -0.9393
 1510SOL     OW 5153   4.491   1.621   4.432  0.2690 -0.4593  0.2267
 1510SOL    HW1 5154   4.476   1.719   4.449 -1.7327 -0.7412  0.3456
 1510SOL    HW2 5155   4.418   1.569   4.477  0.4134 -1.9028 -1.1605
 1511SOL     OW 5156   1.719   2.790   3.558 -0.2572  0.3874 -0.3480
 1511SOL    HW1 5157   1.799   2.755   3.607  0.8019  1.7406 -1.0642
 1511SOL    HW2 5158   1.666   2.713   3.523  0.3020 -0.5460  0.7823
 1512SOL     OW 5159   4.469   1.701   4.929 -0.4158  0.1777 -0.1577
 1512SOL    HW1 5160   4.484   1.636   4.855  0.0995  0.1672 -0.0507
 1512SOL    HW2 5161   4.438   1.653   5.011  0.1185  0.0473 -0.0320
 1513SOL     OW 5162   1.957   0.363   1.743 -0.1339  0.4406  1.5123
 1513SOL    HW1 5163   1.958   0.461   1.720  0.8636 -0.2438 -1.8434
 1513SOL    HW2 5164   1.874   0.321   1.708 -0.0279 -0.1386  1.9383
 1514SOL     OW 5165   2.144   3.558   3.523  0.3445 -0.6171 -0.0908
 1514SOL    HW1 5166   2.092   3.598   3.598 -1.0121  1.0634 -1.8426
 1514SOL    HW2 5167   2.099   3.579   3.436  0.0763 -5.1387 -1.2886
 1515SOL     OW 5168   3.711   1.375   0.140  0.4566 -0.2625 -0.1086
 1515SOL    HW1 5169   3.706   1.459   0.195 -0.3305 -1.1482  1.2269
 1515SOL    HW2 5170   3.623   1.358   0.097 -0.2155 -1.7086  1.7007
 1516SOL     OW 5171   3.741   2.629   3.828  0.3471 -0.7155  0.4279
 1516SOL    HW1 5172   3.755   2.728   3.825 -1.8703 -0.2502  2.7504
 1516SOL    HW2 5173   3.725   2.595   3.735  0.8775  1.1137 -0.3842
 1517SOL     OW 5174   4.608   4.530   2.905 -1.3189  0.4154 -0.2989
 1517SOL    HW1 5175   4.620   4.608   2.967 -1.8058  1.6171 -1.6648
 1517SOL    HW2 5176   4.695   4.482   2.894 -0.9874  0.8267  0.4560
 1518SOL     OW 5177   2.928   1.310   1.432 -0.0329 -0.7244 -0.3261
 1518SOL    HW1 5178   3.005   1.284   1.374  0.9017 -1.7051  1.2689
 1518SOL    HW2 5179   2.960   1.323   1.526 -1.7117 -0.4775  0.2512
 1519SOL     OW 5180   3.487   3.502   1.368 -0.3229 -0.3218  0.1135
 1519SOL    HW1 5181   3.462   3.588   1.324 -0.2758  1.2546  2.8850
 1519SOL    HW2 5182   3.421   3.432   1.344  1.1543 -0.4887 -4.5119
 1520SOL     OW 5183   1.735   4.483   0.281 -0.4218 -0.0484  0.0396
 1520SOL    HW1 5184   1.668   4.553   0.305 -1.8549 -0.6871 -1.7758
 1520SOL    HW2 5185   1.686   4.398   0.257  1.2461 -1.7194  2.1879
 1521SOL     OW 5186   1.276   4.663   4.893 -0.3314 -0.4107 -0.0704
 1521SOL    HW1 5187   1.332   4.739   4.926 -0.4912 -0.3986  0.1695
 1521SOL    HW2 5188   1.334   4.582   4.882  0.0533  0.0047 -1.2900
 1522SOL     OW 5189   1.518   4.104   3.024 -0.1406 -0.2423  0.0886
 1522SOL    HW1 5190   1.598   4.115   2.965 -0.0914 -0.9497  0.0136
 1522SOL    HW2 5191   1.472   4.192   3.034 -1.7160 -0.5159 -3.2629
 1523SOL     OW 5192   0.121   0.478   2.394 -0.3197  0.1584  0.4724
 1523SOL    HW1 5193   0.077   0.465   2.305  1.7449  0.8191 -0.7051
 1523SOL    HW2 5194   0.147   0.388   2.432 -0.2788 -0.0738 -0.0992
 1524SOL     OW 5195   2.905   0.827   4.909  0.6409  0.6287 -0.0134
 1524SOL    HW1 5196   2.817   0.857   4.946  0.1787  0.7256 -1.1377
 1524SOL    HW2 5197   2.958   0.781   4.980 -1.0881 -1.1126  0.2272
 1525SOL     OW 5198   0.586   4.448   4.783  0.4441 -0.1199  0.2317
 1525SOL    HW1 5199   0.654   4.440   4.856  1.9742  0.2846 -1.1011
 1525SOL    HW2 5200   0.598   4.373   4.718 -1.6232 -1.1182  0.9058
 1526SOL     OW 5201   3.278   0.783   4.070 -0.2295  0.0447  0.3747
 1526SOL    HW1 5202   3.372   0.765   4.039 -0.0201  1.0418  0.4100
 1526SOL    HW2 5203   3.214   0.756   3.998  0.1970  1.2399 -0.4942
 1527SOL     OW 5204   1.754   0.150   2.614 -0.2709 -0.0227  0.3288
 1527SOL    HW1 5205   1.803   0.075   2.658  0.6911  0.1823 -0.3606
 1527SOL    HW2 5206   1.656   0.139   2.630  0.0105 -0.1814  2.1349
 1528SOL     OW 5207   1.862   4.091   0.119  0.8319  0.3599  0.1252
 1528SOL    HW1 5208   1.846   4.004   0.072  0.4739 -1.3026  3.0795
 1528SOL    HW2 5209   1.914   4.075   0.203  1.5694  3.1735  0.3168
 1529SOL     OW 5210   0.057   1.322   1.168  0.6789  0.5408  0.0820
 1529SOL    HW1 5211  -0.022   1.318   1.229  0.0026  0.3717 -0.7944
 1529SOL    HW2 5212   0.129   1.378   1.210 -0.2634  1.4841  0.4587
 1530SOL     OW 5213   2.870   3.293   3.012  0.4056  0.0527 -0.7167
 1530SOL    HW1 5214   2.782   3.293   3.059  1.7105  1.6526  1.9706
 1530SOL    HW2 5215   2.874   3.216   2.949 -2.5371 -0.5937 -0.2627
 1531SOL     OW 5216   1.546   1.532   1.130 -0.4039 -0.8621  0.0577
 1531SOL    HW1 5217   1.629   1.558   1.180  0.0065 -1.4746 -0.2880
 1531SOL    HW2 5218   1.473   1.511   1.195 -0.1294 -0.8252  0.3819
 1532SOL     OW 5219   1.109   4.971   2.131 -0.0362 -0.4200  0.2130
 1532SOL    HW1 5220   1.044   4.988   2.057 -0.7042 -4.0420 -0.2475
 1532SOL    HW2 5221   1.198   4.945   2.092  1.1670  2.4086  0.8324
 1533SOL     OW 5222   3.965   0.351   0.294 -0.3990  0.5750 -0.3788
 1533SOL    HW1 5223   4.025   0.422   0.332 -0.7314 -1.2680  4.2895
 1533SOL    HW2 5224   3.876   0.356   0.338  0.1476 -3.7159  1.7820
 1534SOL     OW 5225   4.808   2.635   0.103 -0.4171  0.0033 -0.1734
 1534SOL    HW1 5226   4.834   2.603   0.012  2.4352  1.5668 -0.0227
 1534SOL    HW2 5227   4.718   2.600   0.126 -0.9754 -0.9416 -3.3335
 1535SOL     OW 5228   0.303   4.735   1.808  0.0963 -1.1162  0.5831
 1535SOL    HW1 5229   0.364   4.723   1.730 -2.0638 -1.3098 -1.1801
 1535SOL    HW2 5230   0.356   4.732   1.893  3.2778  3.1619 -0.8528
 1536SOL     OW 5231   2.674   4.423   4.720 -0.3067 -1.2552  0.1346
 1536SOL    HW1 5232   2.721   4.389   4.801  0.1322 -0.9484  0.0173
 1536SOL    HW2 5233   2.690   4.361   4.643 -1.5486 -2.0735  0.5177
 1537SOL     OW 5234   3.867   3.538   2.956 -0.0548 -0.0524  0.0387
 1537SOL    HW1 5235   3.820   3.524   3.044  1.2777  0.0726  0.8051
 1537SOL    HW2 5236   3.895   3.449   2.919 -4.3504 -0.6042 -2.5125
 1538SOL     OW 5237   4.275   3.178   1.135  0.0049  0.2943  0.6844
 1538SOL    HW1 5238   4.344   3.208   1.070  2.0122 -2.5048  1.3190
 1538SOL    HW2 5239   4.318   3.123   1.206 -2.8979 -1.7964  1.0128
 1539SOL     OW 5240   0.601   2.066   1.406  0.4476 -0.6225 -0.1411
 1539SOL    HW1 5241   0.631   2.154   1.443 -1.7872 -0.4503  1.4123
 1539SOL    HW2 5242   0.530   2.082   1.338  0.6403 -1.2185 -0.4892
 1540SOL     OW 5243   1.763   3.405   2.977  0.5857 -0.5263  0.7225
 1540SOL    HW1 5244   1.862   3.416   2.972  0.8067 -1.7290  2.0481
 1540SOL    HW2 5245   1.721   3.490   3.010  1.2624 -0.3420  1.1144
 1541SOL     OW 5246   1.649   4.758   3.735 -0.1761  0.0918 -0.6164
 1541SOL    HW1 5247   1.604   4.722   3.653 -2.7456  2.3290 -0.3260
 1541SOL    HW2 5248   1.581   4.774   3.807  1.6060  0.6728  1.0391
 1542SOL     OW 5249   0.945   2.731   1.121  0.5730 -0.4588 -0.3867
 1542SOL    HW1 5250   0.941   2.806   1.187 -1.1511  0.7232 -1.7219
 1542SOL    HW2 5251   0.894   2.757   1.039  2.2730 -2.0264 -2.0316
 1543SOL     OW 5252   2.447   2.241   0.516  0.7805 -1.1333  0.2037
 1543SOL    HW1 5253   2.497   2.240   0.430  0.5488  0.9684 -0.0175
 1543SOL    HW2 5254   2.349   2.228   0.498  0.3406  1.9592 -0.2778
 1544SOL     OW 5255   4.200   0.077   3.351 -0.1458  0.5320  0.0886
 1544SOL    HW1 5256   4.245   0.051   3.266  0.0557 -0.0667  0.3675
 1544SOL    HW2 5257   4.112   0.029   3.358  0.8203 -1.1807  1.2254
 1545SOL     OW 5258   1.136   4.794   4.698 -0.2484 -0.2004  0.5291
 1545SOL    HW1 5259   1.171   4.716   4.749  1.1354  1.2373  1.9066
 1545SOL    HW2 5260   1.056   4.831   4.745  0.2332  0.3258  0.9517
 1546SOL     OW 5261   4.127   0.543   0.301 -0.7307  0.2366 -0.8461
 1546SOL    HW1 5262   4.218   0.503   0.288 -1.8237 -3.1721  0.8991
 1546SOL    HW2 5263   4.136   0.634   0.341  1.8985  0.6318 -2.1538
 1547SOL     OW 5264   4.828   3.772   1.564  0.0154 -0.2431 -0.7770
 1547SOL    HW1 5265   4.841   3.869   1.546 -1.6411 -0.0346 -1.0328
 1547SOL    HW2 5266   4.824   3.722   1.478 -1.0769 -0.2339 -0.7491
 1548SOL     OW 5267   1.854   4.792   3.118 -0.4251 -0.8095  0.3403
 1548SOL    HW1 5268   1.907   4.712   3.146  0.1970 -0.8167 -0.8019
 1548SOL    HW2 5269   1.834   4.849   3.198  0.4501 -1.3192  0.9299
 1549SOL     OW 5270   2.012   2.925   1.898  0.2628 -0.0820  0.7645
 1549SOL    HW1 5271   1.924   2.884   1.923 -0.0338  0.1765  0.1537
 1549SOL    HW2 5272   2.081   2.896   1.964 -0.5034  0.5752  1.8804
 1550SOL     OW 5273   4.356   2.721   1.524  0.7704 -0.3056  0.3967
 1550SOL    HW1 5274   4.282   2.675   1.572  1.4740 -0.4491  1.3822
 1550SOL    HW2 5275   4.324   2.808   1.487 -0.4503 -1.3297 -1.0826
 1551SOL     OW 5276   2.937   4.307   4.680 -1.0167 -0.7563 -0.0808
 1551SOL    HW1 5277   2.904   4.280   4.589 -1.1866 -1.9052  0.2982
 1551SOL    HW2 5278   2.941   4.226   4.739 -0.2165 -0.1484  0.7262
 1552SOL     OW 5279   0.725   1.711   4.817 -0.3378  0.4827  0.2642
 1552SOL    HW1 5280   0.726   1.664   4.906 -0.0147  1.0802  0.5834
 1552SOL    HW2 5281   0.818   1.713   4.779 -0.7430 -1.2858 -0.9130
 1553SOL     OW 5282   2.612   1.466   3.973 -0.4779  0.2183  0.7249
 1553SOL    HW1 5283   2.577   1.535   3.910  0.9519 -0.9236 -1.4366
 1553SOL    HW2 5284   2.685   1.505   4.029  0.8658  0.3330 -1.0276
 1554SOL     OW 5285   3.005   3.777   0.471 -0.3485 -1.0880  0.2216
 1554SOL    HW1 5286   2.940   3.729   0.530 -1.1814 -0.5914 -0.2670
 1554SOL    HW2 5287   2.994   3.745   0.377 -1.4256  0.5176 -0.2435
 1555SOL     OW 5288   2.641   0.512   4.317  0.0305  0.3865 -0.0500
 1555SOL    HW1 5289   2.635   0.517   4.217 -2.3083  1.0307  0.0661
 1555SOL    HW2 5290   2.720   0.566   4.348  2.0177 -1.4120 -1.5951
 1556SOL     OW 5291   1.595   1.154   1.703  0.6502  0.3652  0.3286
 1556SOL    HW1 5292   1.672   1.117   1.755  1.1877  0.7165 -0.2116
 1556SOL    HW2 5293   1.551   1.081   1.652 -0.4090 -0.1573  1.8985
 1557SOL     OW 5294   3.928   1.245   4.873 -0.1374 -0.0611  0.1277
 1557SOL    HW1 5295   3.858   1.201   4.817 -0.5919  0.4194  0.3150
 1557SOL    HW2 5296   3.971   1.319   4.821 -1.5977  1.3839  0.8956
 1558SOL     OW 5297   0.264   4.895   4.053 -0.6202 -0.0973 -0.5954
 1558SOL    HW1 5298   0.279   4.981   4.101  1.1618 -1.3850  1.3697
 1558SOL    HW2 5299   0.347   4.839   4.057 -2.3157 -2.7840  0.0854
 1559SOL     OW 5300   3.732   1.367   0.811 -0.1634  0.0298  0.2439
 1559SOL    HW1 5301   3.671   1.446   0.807  0.1034  0.2911  1.1442
 1559SOL    HW2 5302   3.682   1.285   0.783 -1.3116  0.0316  2.0699
 1560SOL     OW 5303   0.709   1.308   1.168  0.1864  0.1193 -0.2319
 1560SOL    HW1 5304   0.657   1.271   1.092  0.1034 -1.8081  0.6937
 1560SOL    HW2 5305   0.678   1.400   1.188 -1.4255 -0.2178 -1.0307
 1561SOL     OW 5306   4.756   2.055   4.249 -1.1981  0.3625 -0.2505
 1561SOL    HW1 5307   4.674   2.028   4.300 -1.3505  2.0882  0.4756
 1561SOL    HW2 5308   4.836   2.014   4.292 -1.6569 -1.5701 -1.1291
 1562SOL     OW 5309   1.536   0.828   2.508 -0.1495  0.1332  0.4801
 1562SOL    HW1 5310   1.480   0.857   2.430 -1.5895 -0.3682  1.2930
 1562SOL    HW2 5311   1.611   0.772   2.475 -0.2032  0.6793 -0.6326
 1563SOL     OW 5312   4.644   3.697   0.112  0.5929  0.0426  0.8293
 1563SOL    HW1 5313   4.570   3.715   0.047  1.3458 -0.1694 -0.1124
 1563SOL    HW2 5314   4.712   3.770   0.106  0.9881 -0.3139  0.9138
 1564SOL     OW 5315   1.994   2.155   1.449 -0.6501  0.1694  0.4355
 1564SOL    HW1 5316   1.960   2.091   1.518  0.2588  0.9362  1.6336
 1564SOL    HW2 5317   2.090   2.134   1.429 -1.1355 -0.6130 -1.3047
 1565SOL     OW 5318   4.692   2.924   4.078  0.3028 -0.6006 -0.6673
 1565SOL    HW1 5319   4.745   2.980   4.141 -2.3076  1.3962 -0.0965
 1565SOL    HW2 5320   4.694   2.965   3.987 -3.5233  2.0881  0.2226
 1566SOL     OW 5321   0.500   2.331   2.051 -0.1443 -0.5663  0.1492
 1566SOL    HW1 5322   0.402   2.308   2.050 -0.0017 -1.1867 -0.5385
 1566SOL    HW2 5323   0.532   2.334   2.145 -0.1853 -3.2410  0.3369
 1567SOL     OW 5324   2.851   0.607   4.476 -0.7884 -0.0242 -0.4553
 1567SOL    HW1 5325   2.824   0.703   4.484  0.5636  0.6005 -2.6181
 1567SOL    HW2 5326   2.936   0.600   4.425 -0.5575 -2.3762  0.1168
 1568SOL     OW 5327   2.598   2.762   4.182 -0.1237  0.5095  0.2040
 1568SOL    HW1 5328   2.647   2.682   4.217  0.3548  1.0565  0.8075
 1568SOL    HW2 5329   2.649   2.800   4.105 -1.7023 -1.3052 -1.8409
 1569SOL     OW 5330   3.308   4.787   0.900  0.1788 -0.5173  0.1242
 1569SOL    HW1 5331   3.231   4.813   0.842  0.2350 -0.2029  0.1874
 1569SOL    HW2 5332   3.281   4.794   0.996  1.0168  2.0586  0.2446
 1570SOL     OW 5333   0.034   2.126   0.710  0.0605 -0.5195  0.4137
 1570SOL    HW1 5334   0.132   2.145   0.708  0.5263 -2.6339  0.3049
 1570SOL    HW2 5335  -0.017   2.208   0.685  1.6892  1.1479  2.2947
 1571SOL     OW 5336   0.511   3.919   0.754  0.8113  0.4372  0.3966
 1571SOL    HW1 5337   0.430   3.877   0.713  1.0667 -0.9345  1.2240
 1571SOL    HW2 5338   0.487   3.959   0.842  0.9146  0.5399  0.3780
 1572SOL     OW 5339   1.333   0.977   3.447  0.2456  0.0980 -0.7521
 1572SOL    HW1 5340   1.260   0.981   3.515  1.0170  1.5165  0.0373
 1572SOL    HW2 5341   1.295   0.989   3.355 -0.5735  0.2255 -0.3971
 1573SOL     OW 5342   2.649   0.016   2.709  0.1958  0.2425 -0.8265
 1573SOL    HW1 5343   2.621   0.010   2.613 -0.7053  2.4023 -0.7358
 1573SOL    HW2 5344   2.610  -0.061   2.760  0.8165 -1.0166 -2.1840
 1574SOL     OW 5345   0.218   0.973   1.934 -0.4235 -0.4031 -0.4196
 1574SOL    HW1 5346   0.304   0.985   1.982 -1.2478 -3.3900  2.1215
 1574SOL    HW2 5347   0.144   1.016   1.986 -1.2268 -3.0303  0.7346
 1575SOL     OW 5348   0.088   1.590   2.511 -0.2637 -0.4160  0.1234
 1575SOL    HW1 5349   0.108   1.683   2.542  0.6780 -0.8964  1.0186
 1575SOL    HW2 5350   0.167   1.553   2.462 -1.2144 -0.1969 -1.6356
 1576SOL     OW 5351   0.438   2.114   1.177 -0.1976  0.3264  0.2170
 1576SOL    HW1 5352   0.474   2.036   1.126 -1.8185 -1.0642  1.0964
 1576SOL    HW2 5353   0.438   2.195   1.119  1.2067 -0.3744 -0.8349
 1577SOL     OW 5354   1.223   2.744   3.607  0.1144  0.2309  0.4363
 1577SOL    HW1 5355   1.283   2.669   3.636  1.2017  1.1119  0.5264
 1577SOL    HW2 5356   1.228   2.818   3.674 -0.8160  0.4682  0.2576
 1578SOL     OW 5357   4.552   3.860   2.081 -0.2006  0.8912  0.1039
 1578SOL    HW1 5358   4.649   3.867   2.058 -0.2281  1.0892  0.0477
 1578SOL    HW2 5359   4.499   3.839   1.999  0.0878 -2.1077  0.5422
 1579SOL     OW 5360   0.269   4.833   0.962  0.5385  0.1909  0.2640
 1579SOL    HW1 5361   0.271   4.757   0.898 -2.3770 -0.2872  0.5593
 1579SOL    HW2 5362   0.174   4.865   0.972  0.9458  0.7692  3.6587
 1580SOL     OW 5363   2.510   2.316   2.202 -1.0990 -0.6219  0.2005
 1580SOL    HW1 5364   2.592   2.347   2.153  0.5012 -0.0317  3.0578
 1580SOL    HW2 5365   2.452   2.395   2.223 -3.2917 -1.1653 -3.0151
 1581SOL     OW 5366   0.740   2.617   4.110 -0.0481  1.0804  0.8101
 1581SOL    HW1 5367   0.824   2.639   4.061  1.3815 -0.2689  2.4920
 1581SOL    HW2 5368   0.685   2.554   4.056 -0.5095  2.7133 -0.7243
 1582SOL     OW 5369   2.419   3.624   3.461 -0.1324  0.3334 -0.9450
 1582SOL    HW1 5370   2.333   3.584   3.491 -0.5289  0.8487 -1.3809
 1582SOL    HW2 5371   2.409   3.723   3.453  0.7153  0.4955 -0.2667
 1583SOL     OW 5372   4.125   4.091   4.069 -0.1177 -1.0989 -0.3696
 1583SOL    HW1 5373   4.080   4.180   4.063  0.5687 -0.8375 -2.1541
 1583SOL    HW2 5374   4.189   4.091   4.146  0.7314  0.3885 -1.0335
 1584SOL     OW 5375   4.993   1.749   1.516 -0.3895 -0.0736  0.0763
 1584SOL    HW1 5376   5.053   1.790   1.448  1.1749  1.4036  2.2266
 1584SOL    HW2 5377   5.047   1.722   1.596 -2.1846 -1.5472  0.8533
 1585SOL     OW 5378   3.776   3.082   0.590  1.0244  0.5621 -0.2248
 1585SOL    HW1 5379   3.726   3.046   0.669  0.6087  0.0741 -0.6945
 1585SOL    HW2 5380   3.874   3.069   0.603  1.0387  1.5213  0.7041
 1586SOL     OW 5381   3.362   0.399   0.528  0.5085 -0.8487 -0.1633
 1586SOL    HW1 5382   3.392   0.318   0.478 -0.0586 -1.6829  0.8022
 1586SOL    HW2 5383   3.435   0.467   0.528  1.5024 -1.8837  0.1259
 1587SOL     OW 5384   2.178   1.460   1.835  0.4729  0.9794  0.5420
 1587SOL    HW1 5385   2.090   1.496   1.804 -0.1338 -2.6116 -2.7109
 1587SOL    HW2 5386   2.250   1.488   1.770  2.1595  4.6249  3.6230
 1588SOL     OW 5387   3.444   2.793   1.168  0.5835  0.4010 -0.5697
 1588SOL    HW1 5388   3.471   2.697   1.170  4.1027  1.2310  2.4843
 1588SOL    HW2 5389   3.484   2.838   1.088  0.8927 -0.2120 -0.7592
 1589SOL     OW 5390   4.790   3.701   0.336  0.1249  0.9117  0.1172
 1589SOL    HW1 5391   4.844   3.620   0.311 -0.6003  0.6790 -0.7547
 1589SOL    HW2 5392   4.717   3.713   0.269 -0.8553  1.2608  1.2313
 1590SOL     OW 5393   0.339   0.072   1.663 -0.6391 -1.1912  0.3945
 1590SOL    HW1 5394   0.300   0.156   1.625 -1.6652 -0.1788  3.3864
 1590SOL    HW2 5395   0.320  -0.004   1.601 -0.3121  0.6026 -2.0668
 1591SOL     OW 5396   2.708   0.473   0.844  0.6412 -0.8023 -0.6102
 1591SOL    HW1 5397   2.762   0.407   0.896  0.2931 -0.6688 -0.0686
 1591SOL    HW2 5398   2.699   0.557   0.896 -4.3504 -2.4213  1.8440
 1592SOL     OW 5399   4.107   1.383   4.501  0.0208  0.2463 -0.7210
 1592SOL    HW1 5400   4.165   1.436   4.440 -3.7565  2.0378 -3.1418
 1592SOL    HW2 5401   4.114   1.286   4.479  0.3566  0.6692 -2.5805
 1593SOL     OW 5402   2.344   4.927   1.997 -0.6224 -0.3509 -0.0944
 1593SOL    HW1 5403   2.342   4.901   2.093  0.3847  0.5260  0.1844
 1593SOL    HW2 5404   2.257   4.970   1.972 -0.4445  0.5520  0.7733
 1594SOL     OW 5405   1.740   1.843   3.265 -1.1881 -0.9177  0.6505
 1594SOL    HW1 5406   1.763   1.767   3.326  0.1196 -0.7560  0.3905
 1594SOL    HW2 5407   1.715   1.923   3.320 -2.4197 -1.4754  0.9240
 1595SOL     OW 5408   4.079   2.357   2.665  0.0817 -0.1369  0.2013
 1595SOL    HW1 5409   4.163   2.397   2.702  1.0087 -1.4543 -0.4143
 1595SOL    HW2 5410   4.009   2.429   2.656  1.8006  1.4750 -1.2516
 1596SOL     OW 5411   3.826   2.538   3.591  0.7085  0.0440 -0.1830
 1596SOL    HW1 5412   3.909   2.590   3.567  4.1386 -5.0932 -0.9909
 1596SOL    HW2 5413   3.806   2.472   3.519 -1.9859 -1.3230  1.6746
 1597SOL     OW 5414   4.929   1.482   1.499  0.4870 -0.1451 -0.7435
 1597SOL    HW1 5415   4.906   1.461   1.594  3.6413 -2.1692 -0.2938
 1597SOL    HW2 5416   4.947   1.580   1.489 -2.7677  0.6552 -0.0685
 1598SOL     OW 5417   0.054   0.394   0.720 -0.4725 -0.2926 -1.0407
 1598SOL    HW1 5418   0.088   0.444   0.800  2.5572 -3.1503 -0.3486
 1598SOL    HW2 5419   0.089   0.437   0.637 -2.4683  1.8390 -0.8949
 1599SOL     OW 5420   0.886   2.393   4.227  0.4962 -0.5651 -0.6776
 1599SOL    HW1 5421   0.948   2.340   4.169 -1.0547 -2.6708 -0.5356
 1599SOL    HW2 5422   0.846   2.467   4.174  0.3570 -1.4386 -1.8254
 1600SOL     OW 5423   2.942   1.697   0.515 -0.3586 -0.0423 -1.1484
 1600SOL    HW1 5424   2.928   1.599   0.507  1.7244 -1.1293  4.1579
 1600SOL    HW2 5425   2.854   1.743   0.521 -1.3681 -1.5244 -3.4752
 1601SOL     OW 5426   1.228   0.498   4.520  0.0517  0.1863 -0.2126
 1601SOL    HW1 5427   1.135   0.504   4.556  0.2001  2.0183 -0.0245
 1601SOL    HW2 5428   1.284   0.442   4.580 -0.6147  0.1488  0.3819
 1602SOL     OW 5429   3.521   1.328   3.558 -0.1821 -0.5481 -0.3019
 1602SOL    HW1 5430   3.458   1.384   3.504  0.4191  0.8744  0.4165
 1602SOL    HW2 5431   3.612   1.334   3.517  0.1171 -0.0673  0.4198
 1603SOL     OW 5432   1.666   3.379   0.203  0.0770 -0.0800  0.1217
 1603SOL    HW1 5433   1.647   3.381   0.105 -2.0951  2.4490  0.4984
 1603SOL    HW2 5434   1.709   3.292   0.226  0.6152 -0.7715 -3.0377
 1604SOL     OW 5435   2.310   2.592   1.284 -0.0355  0.1986 -0.0836
 1604SOL    HW1 5436   2.230   2.604   1.344 -0.1852 -1.9178  0.2129
 1604SOL    HW2 5437   2.379   2.536   1.330  0.6509  0.1045 -1.1834
 1605SOL     OW 5438   3.476   3.352   1.596  0.9659 -0.7315  0.0275
 1605SOL    HW1 5439   3.463   3.431   1.537  0.4119  0.5271  1.7659
 1605SOL    HW2 5440   3.388   3.305   1.610  0.9778 -0.6764  0.3041
 1606SOL     OW 5441   2.974   2.382   0.627  0.3825  0.7199 -0.2673
 1606SOL    HW1 5442   2.959   2.452   0.558 -0.4021  1.7392  0.8893
 1606SOL    HW2 5443   2.932   2.411   0.713 -0.0665 -1.2281  0.2192
 1607SOL     OW 5444   2.938   0.572   1.133 -0.4698 -0.1739 -1.1565
 1607SOL    HW1 5445   3.018   0.608   1.086  0.2513  2.3087  1.6529
 1607SOL    HW2 5446   2.866   0.641   1.134 -0.3258  0.0582  1.4684
 1608SOL     OW 5447   1.617   4.086   2.371  0.4935  0.2180  0.6781
 1608SOL    HW1 5448   1.529   4.092   2.324  0.9776 -0.6099 -0.3770
 1608SOL    HW2 5449   1.687   4.131   2.317  0.2862  3.6250  2.9104
 1609SOL     OW 5450   0.066   3.905   4.148 -0.1587  0.5153  0.2312
 1609SOL    HW1 5451  -0.016   3.848   4.144  0.7674 -0.8243 -0.5559
 1609SOL    HW2 5452   0.076   3.955   4.063 -0.5528  1.2575  0.6182
 1610SOL     OW 5453   2.216   0.795   4.619  0.0176  0.6379  0.2910
 1610SOL    HW1 5454   2.239   0.702   4.649  1.5466  0.4816 -1.2071
 1610SOL    HW2 5455   2.126   0.795   4.576 -0.1547 -0.0751  0.6443
 1611SOL     OW 5456   3.692   3.015   0.321 -0.6723  0.0907  0.1508
 1611SOL    HW1 5457   3.727   3.007   0.414 -2.3391  0.3528  0.8425
 1611SOL    HW2 5458   3.663   3.110   0.305 -0.3813  0.0514 -0.6488
 1612SOL     OW 5459   4.555   4.775   1.022 -0.6258 -0.6969 -1.2895
 1612SOL    HW1 5460   4.563   4.807   0.927  0.1120  1.1364 -0.6464
 1612SOL    HW2 5461   4.470   4.722   1.032  0.6040 -3.3479 -3.5756
 1613SOL     OW 5462   2.635   0.970   4.667  0.7993  0.8393  0.2271
 1613SOL    HW1 5463   2.681   0.891   4.706  0.7034  0.9811  0.6372
 1613SOL    HW2 5464   2.660   1.052   4.719 -0.5754  0.7934  1.0157
 1614SOL     OW 5465   0.642   4.420   2.812 -0.4244  0.9253 -0.0347
 1614SOL    HW1 5466   0.577   4.397   2.884 -0.7899  3.6754  0.6340
 1614SOL    HW2 5467   0.730   4.376   2.831 -1.2881 -0.6360  0.5222
 1615SOL     OW 5468   2.069   1.014   2.883  0.3533  0.2924 -0.3267
 1615SOL    HW1 5469   2.108   1.098   2.921 -0.7262  0.1874  1.1046
 1615SOL    HW2 5470   2.016   1.035   2.801  1.6864  0.7107 -1.1084
 1616SOL     OW 5471   4.499   0.355   1.107 -0.2491 -0.9288 -0.0031
 1616SOL    HW1 5472   4.506   0.262   1.070  2.8034 -1.1265  0.7807
 1616SOL    HW2 5473   4.590   0.387   1.132 -1.4941  1.4538  1.8325
 1617SOL     OW 5474   1.910   4.337   4.333  0.0792 -0.7244 -0.1976
 1617SOL    HW1 5475   1.976   4.322   4.260  1.0056 -1.1697  0.7120
 1617SOL    HW2 5476   1.852   4.256   4.343  0.5446 -1.0221  0.1426
 1618SOL     OW 5477   1.751   0.236   3.745 -0.2697 -0.5125  0.0420
 1618SOL    HW1 5478   1.725   0.327   3.715 -1.7090 -0.6984  0.6491
 1618SOL    HW2 5479   1.752   0.174   3.666  1.3427  0.1185 -0.4831
 1619SOL     OW 5480   4.928   4.839   4.694 -1.3112  0.1907  0.5586
 1619SOL    HW1 5481   4.912   4.863   4.598 -0.8064 -0.2513  0.3580
 1619SOL    HW2 5482   4.978   4.753   4.699  0.5909  1.2650  1.1538
 1620SOL     OW 5483   2.137   0.586   1.615 -0.1149 -0.7191 -0.2192
 1620SOL    HW1 5484   2.168   0.640   1.693 -1.7959 -1.1401  0.7788
 1620SOL    HW2 5485   2.216   0.544   1.570  1.0109  0.7622  0.3131
 1621SOL     OW 5486   1.402   4.739   2.207  0.2759  0.6460 -0.6297
 1621SOL    HW1 5487   1.430   4.829   2.173  0.7764  0.8160  0.1807
 1621SOL    HW2 5488   1.386   4.678   2.130  2.1717  0.7766 -1.1862
 1622SOL     OW 5489   2.141   3.833   1.183  0.7547  0.1451  0.0388
 1622SOL    HW1 5490   2.141   3.889   1.266 -0.3253 -2.0773  1.6308
 1622SOL    HW2 5491   2.202   3.874   1.115  1.9705  1.8445  2.0374
 1623SOL     OW 5492   1.377   3.638   0.248  0.4965 -0.8552  0.2333
 1623SOL    HW1 5493   1.388   3.540   0.260  0.5535 -0.6158  2.4786
 1623SOL    HW2 5494   1.322   3.656   0.166  2.6764 -2.6247 -1.7285
 1624SOL     OW 5495   4.091   3.395   3.168 -0.4312  0.2398 -0.0739
 1624SOL    HW1 5496   4.144   3.472   3.134  0.5200 -0.8338 -1.0917
 1624SOL    HW2 5497   3.993   3.416   3.161 -0.2009  1.9542  1.1654
 1625SOL     OW 5498   4.353   1.155   3.341  0.6565  0.2405  0.1086
 1625SOL    HW1 5499   4.411   1.179   3.419 -0.4769 -3.0548  2.1892
 1625SOL    HW2 5500   4.259   1.144   3.372  0.1742 -1.2217 -1.7108
 1626SOL     OW 5501   2.694   1.711   1.436  0.2909  0.4367 -0.2905
 1626SOL    HW1 5502   2.615   1.709   1.374  0.9742 -0.6463 -1.1641
 1626SOL    HW2 5503   2.777   1.688   1.386  1.7635  4.5316 -0.0985
 1627SOL     OW 5504   3.318   2.073   3.216 -0.8229 -0.0533  0.1931
 1627SOL    HW1 5505   3.277   2.026   3.137  0.6033  0.1556 -0.7076
 1627SOL    HW2 5506   3.373   2.008   3.268 -3.5014 -0.7695  2.3994
 1628SOL     OW 5507   1.730   1.168   0.240 -0.1986  0.4390  0.0577
 1628SOL    HW1 5508   1.821   1.129   0.235 -0.2723  0.4245 -1.5917
 1628SOL    HW2 5509   1.723   1.247   0.179 -1.3130  0.3647  0.0530
 1629SOL     OW 5510   4.360   3.396   2.637  0.8259 -0.3532 -0.2041
 1629SOL    HW1 5511   4.305   3.464   2.686  0.3009 -0.3401 -0.8066
 1629SOL    HW2 5512   4.300   3.333   2.589  1.1728  2.4333 -4.8253
 1630SOL     OW 5513   4.845   2.808   2.397  0.7530  0.2114  0.1656
 1630SOL    HW1 5514   4.870   2.855   2.481  1.3807 -3.1323  2.0043
 1630SOL    HW2 5515   4.761   2.849   2.359  1.9034  3.4887  0.8324
 1631SOL     OW 5516   3.397   0.726   1.308 -0.2270 -1.0240  0.3510
 1631SOL    HW1 5517   3.432   0.798   1.368  0.1494 -1.1038  0.2265
 1631SOL    HW2 5518   3.316   0.759   1.260 -0.7863 -1.0979  1.2193
 1632SOL     OW 5519   4.782   0.466   3.895 -1.0549  0.3892 -0.4263
 1632SOL    HW1 5520   4.737   0.467   3.805 -0.2197  2.0626 -0.8639
 1632SOL    HW2 5521   4.787   0.372   3.928 -2.4400 -0.1335 -1.5869
 1633SOL     OW 5522   4.084   1.099   3.392 -0.3140  0.4939  0.0886
 1633SOL    HW1 5523   3.990   1.128   3.375 -1.3256 -2.1182  0.8169
 1633SOL    HW2 5524   4.098   1.007   3.355  1.9541  0.7706  0.0902
 1634SOL     OW 5525   0.549   1.585   1.213  0.9650 -0.4877  0.0277
 1634SOL    HW1 5526   0.527   1.662   1.153  1.8297 -1.7285 -1.9480
 1634SOL    HW2 5527   0.532   1.612   1.308  1.7430  2.3352 -0.5351
 1635SOL     OW 5528   3.611   4.407   2.906 -0.6147  0.2160  0.6295
 1635SOL    HW1 5529   3.626   4.505   2.894 -0.9971  0.2998  0.8166
 1635SOL    HW2 5530   3.619   4.384   3.003  1.4071 -0.2768  0.3834
 1636SOL     OW 5531   3.910   4.353   1.901  0.6580  0.0106 -0.2167
 1636SOL    HW1 5532   3.993   4.376   1.849  0.5601  0.7274 -0.0739
 1636SOL    HW2 5533   3.874   4.265   1.870  2.1422 -0.9117  0.5507
 1637SOL     OW 5534   3.086   4.518   3.015  0.6878  0.5323  0.3271
 1637SOL    HW1 5535   3.108   4.479   3.104 -0.5443 -2.1841 -0.4310
 1637SOL    HW2 5536   2.996   4.563   3.019 -0.5701 -1.7830 -0.0044
 1638SOL     OW 5537   3.102   4.473   0.320  0.9922  0.5392  0.3266
 1638SOL    HW1 5538   3.167   4.501   0.249  1.2991 -1.2147 -0.1213
 1638SOL    HW2 5539   3.009   4.493   0.290  1.0703 -0.8233 -0.9090
 1639SOL     OW 5540   2.061   1.834   0.955 -1.0250  0.1036 -0.5820
 1639SOL    HW1 5541   2.035   1.918   1.003 -0.6837  1.5809 -2.8176
 1639SOL    HW2 5542   2.006   1.825   0.872  1.1938 -0.0671 -2.1123
 1640SOL     OW 5543   3.392   4.679   2.151  0.6369 -0.9432 -0.2835
 1640SOL    HW1 5544   3.476   4.726   2.123  0.1727 -1.6679 -3.2853
 1640SOL    HW2 5545   3.330   4.745   2.195  1.6976  0.2387 -0.4953
 1641SOL     OW 5546   1.772   1.260   4.751 -1.0044  0.2093  0.8077
 1641SOL    HW1 5547   1.679   1.282   4.782 -1.0671  0.0912  0.7051
 1641SOL    HW2 5548   1.767   1.202   4.670 -0.8840  2.3786 -0.8515
 1642SOL     OW 5549   1.853   4.001   4.201 -0.7709  0.2058  0.4201
 1642SOL    HW1 5550   1.831   3.921   4.145 -2.1117  1.6451 -1.1798
 1642SOL    HW2 5551   1.800   3.997   4.286 -2.7213  0.5669 -0.7179
 1643SOL     OW 5552   4.394   3.451   3.200  1.0116  0.0960  0.4677
 1643SOL    HW1 5553   4.322   3.509   3.239  1.4938  1.4115 -0.5110
 1643SOL    HW2 5554   4.357   3.360   3.180 -0.7672  1.1001 -1.1343
 1644SOL     OW 5555   1.211   2.347   4.088 -0.2824 -0.3842  0.2234
 1644SOL    HW1 5556   1.156   2.273   4.127 -1.4803  0.8907  1.0801
 1644SOL    HW2 5557   1.218   2.335   3.989 -2.0917 -0.6398  0.0922
 1645SOL     OW 5558   1.627   4.996   0.537  0.7471  0.6952 -0.1346
 1645SOL    HW1 5559   1.673   5.059   0.599 -1.1345  1.5094  0.5228
 1645SOL    HW2 5560   1.547   5.042   0.497 -0.8540 -1.3035  0.5759
 1646SOL     OW 5561   3.056   2.423   4.218  0.2764  0.5597  0.6824
 1646SOL    HW1 5562   3.013   2.449   4.132  0.9396  1.0130  0.4891
 1646SOL    HW2 5563   3.028   2.487   4.290 -1.5548 -0.7206  1.1934
 1647SOL     OW 5564   0.133   2.045   3.466 -0.2683  1.1957 -0.8895
 1647SOL    HW1 5565   0.097   1.971   3.409 -0.0747 -0.1764  0.7109
 1647SOL    HW2 5566   0.233   2.047   3.460 -0.2701  1.3264 -0.8982
 1648SOL     OW 5567   3.957   0.396   2.702  0.0162 -0.2705 -0.5557
 1648SOL    HW1 5568   3.898   0.316   2.717 -1.0761  0.6719  0.3769
 1648SOL    HW2 5569   3.940   0.433   2.610  2.7633 -2.8465 -2.2842
 1649SOL     OW 5570   1.286   3.457   0.998  0.4889  0.0426 -0.0938
 1649SOL    HW1 5571   1.358   3.523   0.976  1.0497 -1.1091 -2.0472
 1649SOL    HW2 5572   1.273   3.395   0.920 -4.3346  1.6509 -0.9545
 1650SOL     OW 5573   4.166   4.134   0.389  0.6155  0.0771 -0.1717
 1650SOL    HW1 5574   4.138   4.058   0.447 -1.1728 -0.9114 -2.1845
 1650SOL    HW2 5575   4.227   4.195   0.440  0.2258 -1.4380  2.2380
 1651SOL     OW 5576   0.495   2.885   1.556 -0.0685  0.1942  0.5179
 1651SOL    HW1 5577   0.593   2.896   1.541  0.1165 -2.2932 -0.5146
 1651SOL    HW2 5578   0.445   2.942   1.491  0.6997 -0.0978 -0.3384
 1652SOL     OW 5579   2.156   1.859   0.513  0.0574  0.5599 -0.5270
 1652SOL    HW1 5580   2.245   1.871   0.556  0.5029  0.5800 -1.4208
 1652SOL    HW2 5581   2.083   1.877   0.579  0.7017 -0.5068  0.5090
 1653SOL     OW 5582   1.146   4.831   0.636 -0.3166 -0.4921  0.6973
 1653SOL    HW1 5583   1.102   4.849   0.725  1.1783 -0.2780  1.4277
 1653SOL    HW2 5584   1.214   4.901   0.618 -2.3428  0.9492 -1.8889
 1654SOL     OW 5585   1.409   4.138   4.135  0.5930  0.8344  0.4556
 1654SOL    HW1 5586   1.379   4.185   4.052 -0.4018  2.9474  1.9290
 1654SOL    HW2 5587   1.496   4.176   4.165  0.2390  1.1058  1.1566
 1655SOL     OW 5588   0.400   0.193   4.656  0.0507  0.4540  0.3971
 1655SOL    HW1 5589   0.470   0.210   4.726  3.1589  0.6469 -2.5112
 1655SOL    HW2 5590   0.366   0.280   4.622  1.3823  0.5195 -0.8704
 1656SOL     OW 5591   1.265   2.035   4.384  0.8427 -0.1019  0.9815
 1656SOL    HW1 5592   1.346   2.000   4.431 -0.1168 -1.6638  1.5566
 1656SOL    HW2 5593   1.251   2.131   4.408  1.0897 -0.5098  2.9337
 1657SOL     OW 5594   0.068   1.198   2.407  0.3764 -0.6775 -0.0619
 1657SOL    HW1 5595   0.062   1.216   2.505  1.8088  3.2313 -0.5063
 1657SOL    HW2 5596   0.104   1.106   2.392 -1.3211 -1.9868  2.9607
 1658SOL     OW 5597   4.250   2.165   1.134  0.4170  0.4368 -0.3500
 1658SOL    HW1 5598   4.227   2.260   1.158  2.4214  1.1183 -0.9279
 1658SOL    HW2 5599   4.271   2.114   1.217 -1.8283  0.1032  0.0849
 1659SOL     OW 5600   1.705   0.063   1.055  0.3296 -0.0044  0.5381
 1659SOL    HW1 5601   1.715   0.144   1.113 -0.8600 -0.3846  1.3152
 1659SOL    HW2 5602   1.764   0.071   0.975  2.4316  0.3139  2.0292
 1660SOL     OW 5603   1.552   3.931   0.661 -1.0007  0.4780  0.0165
 1660SOL    HW1 5604   1.492   3.878   0.721  0.2045 -2.5132 -1.2600
 1660SOL    HW2 5605   1.581   3.875   0.585 -1.2762  3.6864 -2.6833
 1661SOL     OW 5606   4.122   3.455   1.082  0.2934 -0.7664 -0.2697
 1661SOL    HW1 5607   4.160   3.379   1.134  1.6767 -0.0306 -0.1490
 1661SOL    HW2 5608   4.033   3.430   1.046  0.4634 -2.2214  0.2685
 1662SOL     OW 5609   3.468   3.438   3.111 -0.5346  0.2882 -0.5916
 1662SOL    HW1 5610   3.451   3.470   3.205 -0.5849  0.0937 -0.5338
 1662SOL    HW2 5611   3.465   3.516   3.049 -2.7197  0.1455 -0.7426
 1663SOL     OW 5612   4.564   4.609   4.479  0.0977  0.5496 -0.5264
 1663SOL    HW1 5613   4.495   4.667   4.436  1.8336  2.7730 -0.4342
 1663SOL    HW2 5614   4.625   4.665   4.535 -0.6124 -1.8750  3.0171
 1664SOL     OW 5615   1.925   4.946   4.190  0.0369 -0.0688  0.3911
 1664SOL    HW1 5616   1.925   5.020   4.123 -2.7570 -0.2827  0.0286
 1664SOL    HW2 5617   1.962   4.863   4.148 -0.1338  0.2194 -0.3440
 1665SOL     OW 5618   0.696   2.225   3.930  0.0250  0.6152  0.4247
 1665SOL    HW1 5619   0.652   2.279   3.858 -0.7402 -1.5177 -0.8112
 1665SOL    HW2 5620   0.777   2.180   3.893  0.2554  0.3502  1.2240
 1666SOL     OW 5621   0.271   0.103   0.658  0.4685 -0.4331  0.4125
 1666SOL    HW1 5622   0.214   0.059   0.727  0.1998 -0.2055  0.3343
 1666SOL    HW2 5623   0.246   0.070   0.567  0.8698 -0.7862  0.4263
 1667SOL     OW 5624   4.320   0.770   1.283  0.3495 -0.0610  0.6599
 1667SOL    HW1 5625   4.249   0.835   1.256 -0.8317 -1.0545  1.2922
 1667SOL    HW2 5626   4.334   0.704   1.209  1.1492  0.5526  0.2461
 1668SOL     OW 5627   2.904   3.051   2.283 -0.3740 -0.4960 -0.6095
 1668SOL    HW1 5628   2.885   3.104   2.366  0.0236 -0.9797 -0.1998
 1668SOL    HW2 5629   2.877   3.104   2.203 -2.0281 -0.5658 -0.1289
 1669SOL     OW 5630   4.024   4.520   4.827  0.2983  0.6541  1.1461
 1669SOL    HW1 5631   3.963   4.442   4.836 -0.6280  1.3830  1.3522
 1669SOL    HW2 5632   4.116   4.488   4.807 -0.4653 -0.4175 -0.9470
 1670SOL     OW 5633   4.595   2.143   4.457 -0.6768  0.1947  0.7289
 1670SOL    HW1 5634   4.672   2.205   4.469 -2.5532  2.9698 -0.3779
 1670SOL    HW2 5635   4.518   2.194   4.417 -2.6673 -2.7104  0.5917
 1671SOL     OW 5636   1.546   4.543   2.496 -0.4765  0.2041  0.6675
 1671SOL    HW1 5637   1.525   4.531   2.399  0.3972  1.3916  0.3166
 1671SOL    HW2 5638   1.473   4.595   2.540 -1.4233 -1.2799  0.9200
 1672SOL     OW 5639   3.213   0.481   1.693 -0.6707  0.9548 -0.3232
 1672SOL    HW1 5640   3.268   0.480   1.609 -0.2150  0.7480 -0.0264
 1672SOL    HW2 5641   3.180   0.388   1.712  2.5051  0.1250  1.8350
 1673SOL     OW 5642   1.067   3.992   3.779 -0.1299 -0.3652  0.1693
 1673SOL    HW1 5643   1.000   3.917   3.783 -3.4101  2.3348  0.0832
 1673SOL    HW2 5644   1.133   3.982   3.853 -0.1386 -3.4956 -0.1000
 1674SOL     OW 5645   2.213   4.717   0.239  0.8673  0.7025 -0.3467
 1674SOL    HW1 5646   2.294   4.692   0.290  0.0658  0.8221  1.0192
 1674SOL    HW2 5647   2.137   4.657   0.265  0.6336  0.2044 -2.0276
 1675SOL     OW 5648   4.128   4.483   3.223 -0.2009 -0.4496  0.1888
 1675SOL    HW1 5649   4.104   4.445   3.133  0.6615  0.6995 -0.5620
 1675SOL    HW2 5650   4.189   4.561   3.210 -0.7473  0.2673  1.7483
 1676SOL     OW 5651   0.536   4.795   0.794  0.3952  0.1378  0.1929
 1676SOL    HW1 5652   0.540   4.700   0.825  1.0567 -0.9368 -2.8608
 1676SOL    HW2 5653   0.550   4.856   0.872  2.4861 -2.3012  1.8861
 1677SOL     OW 5654   2.643   4.171   0.722  0.4974 -0.4944 -0.1501
 1677SOL    HW1 5655   2.719   4.220   0.765  1.2549  1.0929 -3.0052
 1677SOL    HW2 5656   2.567   4.234   0.707  0.8182 -0.5416 -2.3198
 1678SOL     OW 5657   2.090   3.573   1.314 -0.0043 -0.3542 -0.0018
 1678SOL    HW1 5658   2.076   3.668   1.343 -0.1305  0.6858 -3.1498
 1678SOL    HW2 5659   2.164   3.569   1.248  0.4851 -2.6166  0.6146
 1679SOL     OW 5660   3.807   1.311   1.935 -0.0817  0.3668 -0.2495
 1679SOL    HW1 5661   3.860   1.251   1.876 -0.4796 -1.2240  0.9359
 1679SOL    HW2 5662   3.784   1.263   2.019 -2.0804  1.5165 -0.0679
 1680SOL     OW 5663   3.170   2.178   4.302  0.7899 -0.8371  0.5995
 1680SOL    HW1 5664   3.119   2.260   4.277 -3.1542 -2.6363  1.9539
 1680SOL    HW2 5665   3.213   2.139   4.220 -0.5125  0.4596 -0.7682
 1681SOL     OW 5666   3.041   4.241   4.956 -0.4368  0.4911 -0.8859
 1681SOL    HW1 5667   3.115   4.180   4.985  1.0193  1.7883 -1.7375
 1681SOL    HW2 5668   2.974   4.190   4.902  0.3906 -0.4885 -1.0048
 1682SOL     OW 5669   3.810   4.595   3.837  0.6033  0.1473  0.0662
 1682SOL    HW1 5670   3.893   4.564   3.791  0.4162  0.7288 -0.6717
 1682SOL    HW2 5671   3.833   4.629   3.929  0.7926 -2.3061  1.0023
 1683SOL     OW 5672   1.405   3.699   2.982  0.7198  0.5236  0.7052
 1683SOL    HW1 5673   1.311   3.667   2.985  0.3644  1.5438  0.7790
 1683SOL    HW2 5674   1.408   3.793   2.949  1.7163  0.5000  0.6810
 1684SOL     OW 5675   1.231   1.572   1.679 -0.4801  0.1461 -0.6740
 1684SOL    HW1 5676   1.278   1.651   1.717  0.0308 -0.4927  0.0679
 1684SOL    HW2 5677   1.296   1.495   1.672 -0.7300  0.0310 -2.2013
 1685SOL     OW 5678   0.939   2.873   1.959 -0.0055  0.0606  0.5886
 1685SOL    HW1 5679   0.867   2.932   1.997 -1.1611 -0.2932 -0.9461
 1685SOL    HW2 5680   1.028   2.905   1.991 -0.5984  2.4413  0.1021
 1686SOL     OW 5681   1.536   2.861   3.229 -0.2196 -0.0697 -0.2463
 1686SOL    HW1 5682   1.458   2.847   3.291 -0.6791  1.0913 -0.5371
 1686SOL    HW2 5683   1.554   2.959   3.219  0.5222 -0.2779 -1.1343
 1687SOL     OW 5684   3.283   0.071   4.557  0.4749  0.8389  0.8200
 1687SOL    HW1 5685   3.223   0.121   4.619 -0.2481  2.6594 -1.2237
 1687SOL    HW2 5686   3.349   0.134   4.516 -1.0283  0.4364 -2.5152
 1688SOL     OW 5687   2.523   4.648   2.293 -0.0869 -0.2716  0.0640
 1688SOL    HW1 5688   2.475   4.621   2.377  0.5649 -1.9435 -0.0722
 1688SOL    HW2 5689   2.619   4.665   2.313 -0.4578  2.1210  0.1470
 1689SOL     OW 5690   2.484   3.214   1.800 -0.9992  0.8953 -0.2548
 1689SOL    HW1 5691   2.473   3.308   1.768  0.5563  1.7591  1.6122
 1689SOL    HW2 5692   2.478   3.211   1.900 -0.8438 -0.9814 -0.2590
 1690SOL     OW 5693   4.699   2.253   3.402  0.0739 -0.2811 -0.2062
 1690SOL    HW1 5694   4.612   2.223   3.442  0.7393  0.7045  2.1606
 1690SOL    HW2 5695   4.772   2.239   3.468  1.6810 -0.7075 -2.0055
 1691SOL     OW 5696   0.500   2.344   3.696 -0.4817  0.2064 -0.0358
 1691SOL    HW1 5697   0.412   2.298   3.708 -1.4408  2.4755  3.0511
 1691SOL    HW2 5698   0.504   2.424   3.756  3.1196  1.1309 -1.2415
 1692SOL     OW 5699   1.270   0.672   3.135 -0.4391  0.2246 -0.4818
 1692SOL    HW1 5700   1.228   0.745   3.080  1.7782  1.6301 -0.4113
 1692SOL    HW2 5701   1.197   0.616   3.176 -2.1806  0.3410 -3.1836
 1693SOL     OW 5702   3.385   2.003   3.848  1.3727 -0.1686 -0.2573
 1693SOL    HW1 5703   3.382   1.904   3.833 -0.0554 -0.0195 -1.2040
 1693SOL    HW2 5704   3.358   2.050   3.764  2.2760  1.0406  0.1106
 1694SOL     OW 5705   4.266   3.260   2.303  0.6390  0.0496 -0.1104
 1694SOL    HW1 5706   4.238   3.241   2.398  1.3138  1.3766  0.3791
 1694SOL    HW2 5707   4.294   3.175   2.259  3.0668 -0.2565  1.8118
 1695SOL     OW 5708   2.833   0.285   4.814  0.0616  0.3242 -0.2694
 1695SOL    HW1 5709   2.803   0.375   4.784  0.6843  0.2904 -1.0322
 1695SOL    HW2 5710   2.758   0.238   4.859  0.1647  1.8356  1.5963
 1696SOL     OW 5711   3.427   4.782   0.622  0.4431 -0.0533 -0.2270
 1696SOL    HW1 5712   3.419   4.808   0.718  0.4234 -1.3943  0.1454
 1696SOL    HW2 5713   3.354   4.718   0.598 -0.0582  0.8996 -1.3756
 1697SOL     OW 5714   0.785   2.262   2.075 -0.0838 -0.2084 -0.3348
 1697SOL    HW1 5715   0.859   2.328   2.089 -0.4287 -0.4793  4.2028
 1697SOL    HW2 5716   0.697   2.307   2.093 -0.7673 -0.8516 -1.8524
 1698SOL     OW 5717   4.504   3.505   2.415  0.8197 -0.0054  0.0277
 1698SOL    HW1 5718   4.500   3.464   2.323  0.3067 -0.1123  0.0963
 1698SOL    HW2 5719   4.460   3.444   2.480  1.7425 -0.2250  0.4615
 1699SOL     OW 5720   1.638   1.227   2.585  0.2406 -0.5881  0.5604
 1699SOL    HW1 5721   1.650   1.280   2.669 -1.7298  0.4165  0.2538
 1699SOL    HW2 5722   1.542   1.229   2.557  1.0605  0.5221 -2.6122
 1700SOL     OW 5723   4.748   4.589   2.089  0.3056 -0.2256  0.0942
 1700SOL    HW1 5724   4.787   4.497   2.100  1.7024  0.2855 -0.3338
 1700SOL    HW2 5725   4.815   4.648   2.044 -0.9742  0.7310 -0.6131
 1701SOL     OW 5726   3.387   3.780   2.116 -0.1879 -0.1252  0.0437
 1701SOL    HW1 5727   3.320   3.708   2.099 -3.2195  2.1442  1.5413
 1701SOL    HW2 5728   3.449   3.752   2.189 -2.1111 -0.7927  1.4913
 1702SOL     OW 5729   2.825   1.729   1.127 -0.0425 -0.2969 -0.1440
 1702SOL    HW1 5730   2.834   1.654   1.194 -3.2931 -0.5028  0.2126
 1702SOL    HW2 5731   2.765   1.799   1.164 -0.1462  0.6538 -2.0332
 1703SOL     OW 5732   1.152   3.154   3.417  0.5145 -0.3032 -0.0183
 1703SOL    HW1 5733   1.085   3.190   3.482  2.2092 -0.5170  1.9566
 1703SOL    HW2 5734   1.110   3.080   3.364 -1.9266  2.0376 -1.6315
 1704SOL     OW 5735   2.570   1.398   0.408 -0.4507 -0.2690  0.4643
 1704SOL    HW1 5736   2.635   1.418   0.334  1.0727 -1.8149  1.3159
 1704SOL    HW2 5737   2.479   1.386   0.369 -0.5394  2.9590 -0.6481
 1705SOL     OW 5738   2.229   2.994   2.108 -0.5409 -0.2613  0.1523
 1705SOL    HW1 5739   2.225   3.083   2.064 -2.7117  0.3013  1.3365
 1705SOL    HW2 5740   2.309   2.944   2.076  1.2599  2.4503  0.1100
 1706SOL     OW 5741   2.826   3.255   2.458 -0.2461  0.3889 -0.0685
 1706SOL    HW1 5742   2.815   3.306   2.543  1.5192 -2.4630  2.0592
 1706SOL    HW2 5743   2.913   3.279   2.415 -0.9866  1.5892 -0.9366
 1707SOL     OW 5744   0.568   2.935   1.877 -0.1486 -0.0180  0.0006
 1707SOL    HW1 5745   0.502   2.977   1.814 -2.3672 -1.8551  0.9408
 1707SOL    HW2 5746   0.564   2.982   1.965  1.2317  1.0557 -0.4803
 1708SOL     OW 5747   4.558   0.311   0.282 -0.3985 -0.9323 -0.8154
 1708SOL    HW1 5748   4.622   0.326   0.357  1.5876 -3.3652 -1.8809
 1708SOL    HW2 5749   4.595   0.351   0.198 -2.5859  1.7394 -0.6623
 1709SOL     OW 5750   1.972   0.816   1.890  0.8371 -0.5106 -0.0395
 1709SOL    HW1 5751   2.047   0.769   1.845  1.6868  0.9567 -0.2394
 1709SOL    HW2 5752   1.971   0.793   1.987  2.2596  0.2922  0.1935
 1710SOL     OW 5753   2.365   2.270   3.993  0.7192  0.3517 -0.3482
 1710SOL    HW1 5754   2.296   2.269   4.065  0.1375 -0.9523 -0.8979
 1710SOL    HW2 5755   2.321   2.295   3.906  1.1842  0.7024 -0.4872
 1711SOL     OW 5756   0.811   2.943   4.128  0.5537 -0.1782  0.0384
 1711SOL    HW1 5757   0.788   2.855   4.087 -0.5364  1.2202 -2.6111
 1711SOL    HW2 5758   0.728   2.999   4.136  1.4516  1.1906  0.1283
 1712SOL     OW 5759   4.439   4.333   2.624 -0.4375 -0.0212 -0.3624
 1712SOL    HW1 5760   4.483   4.258   2.576  0.0609 -1.4293  2.1262
 1712SOL    HW2 5761   4.485   4.419   2.601 -0.2983 -0.5979 -2.3831
 1713SOL     OW 5762   3.350   3.629   3.743 -0.0788  0.6993  0.1505
 1713SOL    HW1 5763   3.275   3.664   3.798  0.6835  1.3545  0.7917
 1713SOL    HW2 5764   3.350   3.674   3.654 -0.5525  0.5558  0.0742
 1714SOL     OW 5765   1.952   0.962   4.330  0.1648 -0.0226  0.5795
 1714SOL    HW1 5766   1.936   0.926   4.422 -1.8437 -0.3844  0.1460
 1714SOL    HW2 5767   1.964   0.885   4.267  3.1835  0.2254  0.7256
 1715SOL     OW 5768   2.335   2.184   1.906 -0.3956  0.0181  0.4573
 1715SOL    HW1 5769   2.421   2.136   1.922  0.5762  1.1858 -1.0146
 1715SOL    HW2 5770   2.266   2.150   1.969  0.0913 -3.5956 -0.7117
 1716SOL     OW 5771   2.432   3.544   3.940 -0.5979 -0.5578  0.4199
 1716SOL    HW1 5772   2.473   3.573   3.854  0.2650 -1.0281  0.6602
 1716SOL    HW2 5773   2.332   3.550   3.934 -1.0909 -5.8412 -2.6634
 1717SOL     OW 5774   2.175   2.835   3.666  0.1047 -0.3117  0.2613
 1717SOL    HW1 5775   2.080   2.840   3.698  0.3125  0.7113  0.7596
 1717SOL    HW2 5776   2.177   2.794   3.575 -1.3364  3.5495 -1.7464
 1718SOL     OW 5777   4.835   1.302   1.324 -0.7586  0.2427 -0.0611
 1718SOL    HW1 5778   4.775   1.248   1.383 -2.4420  2.1340  0.0886
 1718SOL    HW2 5779   4.881   1.372   1.379 -1.4001  1.2441 -0.7617
 1719SOL     OW 5780   3.626   1.932   1.675  0.3162 -0.0119  0.7974
 1719SOL    HW1 5781   3.699   1.894   1.733 -0.5480 -2.4260  0.4221
 1719SOL    HW2 5782   3.629   1.887   1.586  0.4371  2.3052 -0.4275
 1720SOL     OW 5783   3.696   1.367   4.422 -0.2725  0.1798 -0.3528
 1720SOL    HW1 5784   3.691   1.325   4.331 -1.7647  1.7968 -1.0786
 1720SOL    HW2 5785   3.603   1.381   4.457  0.1674  2.3338  0.0657
 1721SOL     OW 5786   4.296   1.831   3.397 -0.3371  0.5147  0.5198
 1721SOL    HW1 5787   4.221   1.854   3.459  0.5083 -0.0192  1.7778
 1721SOL    HW2 5788   4.261   1.822   3.304 -1.5939  1.5650  0.8646
 1722SOL     OW 5789   2.644   0.529   4.043 -0.2527  0.0351 -0.5167
 1722SOL    HW1 5790   2.694   0.611   4.015  2.1340 -1.5324 -1.1344
 1722SOL    HW2 5791   2.571   0.510   3.976  1.8494 -0.5896 -2.8070
 1723SOL     OW 5792   1.727   2.750   1.909 -0.3546 -0.0865  0.5538
 1723SOL    HW1 5793   1.683   2.836   1.886 -1.6456 -1.6146 -3.7159
 1723SOL    HW2 5794   1.658   2.684   1.939 -0.4908 -1.2232 -1.9715
 1724SOL     OW 5795   0.401   2.562   2.186 -0.2907 -0.0923  0.3686
 1724SOL    HW1 5796   0.475   2.548   2.119 -1.0994 -0.2375 -0.5206
 1724SOL    HW2 5797   0.340   2.483   2.184 -4.0703  2.4365 -3.5953
 1725SOL     OW 5798   3.265   4.108   4.642  0.3748  0.8233  0.2674
 1725SOL    HW1 5799   3.267   4.111   4.542  1.9077  1.7155  0.2947
 1725SOL    HW2 5800   3.260   4.201   4.678 -0.3503  0.4975  1.0305
 1726SOL     OW 5801   4.257   4.312   4.500 -0.3430 -0.2411  0.5107
 1726SOL    HW1 5802   4.285   4.320   4.596 -1.8934 -3.0563  1.3268
 1726SOL    HW2 5803   4.309   4.239   4.456 -0.7920 -0.0925 -0.2838
 1727SOL     OW 5804   4.445   1.251   2.919  0.2485  0.2662 -0.4714
 1727SOL    HW1 5805   4.457   1.171   2.977 -1.7912 -0.0185 -0.3773
 1727SOL    HW2 5806   4.448   1.224   2.823 -2.3206 -0.3384 -0.4610
 1728SOL     OW 5807   2.286   1.917   0.278  0.3334  0.2544 -0.1172
 1728SOL    HW1 5808   2.364   1.857   0.267 -0.9424 -1.3394 -0.9178
 1728SOL    HW2 5809   2.218   1.875   0.338  0.8908  2.5112  2.3006
 1729SOL     OW 5810   0.750   3.806   2.332  0.2267  0.1094 -0.0283
 1729SOL    HW1 5811   0.667   3.775   2.287  0.2966 -2.4501  1.4144
 1729SOL    HW2 5812   0.727   3.858   2.415  0.0063 -0.8304  0.5198
 1730SOL     OW 5813   0.922   3.210   0.811  0.1855 -0.4702  0.8670
 1730SOL    HW1 5814   0.983   3.207   0.890  2.1578 -1.4527 -0.5822
 1730SOL    HW2 5815   0.977   3.203   0.727 -1.9980 -2.8758 -0.5041
 1731SOL     OW 5816   2.034   2.468   4.143  0.4673 -0.0571  0.1154
 1731SOL    HW1 5817   2.015   2.378   4.103 -0.1624 -0.6421  1.6564
 1731SOL    HW2 5818   1.952   2.525   4.137 -0.2803 -0.8104  2.1819
 1732SOL     OW 5819   2.045   1.177   2.398 -0.4234  0.1893  0.2351
 1732SOL    HW1 5820   2.071   1.081   2.397 -0.9776 -0.1411 -4.6569
 1732SOL    HW2 5821   2.120   1.232   2.360 -1.3894  1.1902 -0.2716
 1733SOL     OW 5822   2.383   0.682   0.565  0.1441 -1.1559 -0.2584
 1733SOL    HW1 5823   2.462   0.720   0.613 -0.0025  0.1128 -0.9676
 1733SOL    HW2 5824   2.411   0.650   0.475  0.1538 -2.2258  0.1200
 1734SOL     OW 5825   2.169   0.413   1.082 -0.0516 -0.2258 -0.4172
 1734SOL    HW1 5826   2.181   0.333   1.141  0.1095 -0.0994 -0.2787
 1734SOL    HW2 5827   2.159   0.495   1.138  0.0929 -0.1066 -0.5627
 1735SOL     OW 5828   3.912   1.555   4.269 -0.0969  0.0214  0.0984
 1735SOL    HW1 5829   3.975   1.528   4.196 -1.8904  0.7529 -1.7982
 1735SOL    HW2 5830   3.902   1.480   4.334  1.6573 -0.5891 -0.2915
 1736SOL     OW 5831   3.351   4.815   2.689  0.1851 -0.1279  0.1924
 1736SOL    HW1 5832   3.289   4.758   2.742 -2.0322 -0.4425 -2.4593
 1736SOL    HW2 5833   3.298   4.871   2.625  2.5624  1.4044 -0.5957
 1737SOL     OW 5834   3.257   4.284   2.978  0.3819  0.0669  0.1067
 1737SOL    HW1 5835   3.294   4.366   3.023  0.9647 -1.0894  1.8593
 1737SOL    HW2 5836   3.192   4.311   2.907  1.2281  2.0546  0.0259
 1738SOL     OW 5837   2.190   2.543   4.331 -0.5033 -0.6454 -0.7214
 1738SOL    HW1 5838   2.112   2.513   4.277  0.0004 -2.7348 -0.4051
 1738SOL    HW2 5839   2.262   2.473   4.327  0.2967  0.0079  1.1191
 1739SOL     OW 5840   2.318   1.804   3.778  0.4902 -0.1383 -0.4374
 1739SOL    HW1 5841   2.320   1.722   3.834  1.5334 -0.8466 -1.4597
 1739SOL    HW2 5842   2.410   1.842   3.770 -0.3477  3.0931  2.7123
 1740SOL     OW 5843   1.567   0.597   1.625 -0.0726 -0.1175  0.7672
 1740SOL    HW1 5844   1.522   0.685   1.640  0.6664  0.0231  2.4967
 1740SOL    HW2 5845   1.666   0.612   1.616 -0.1802 -0.5406 -1.6600
 1741SOL     OW 5846   2.096   2.916   0.734  0.1404 -0.0845 -0.1964
 1741SOL    HW1 5847   2.008   2.879   0.704  1.0363 -1.7203 -0.9104
 1741SOL    HW2 5848   2.146   2.951   0.655 -0.0358  1.3014  0.2695
 1742SOL     OW 5849   3.177   3.494   4.933  0.9537  0.0992 -0.0643
 1742SOL    HW1 5850   3.097   3.496   4.993  1.6451  1.6197  0.8701
 1742SOL    HW2 5851   3.156   3.440   4.852 -0.4843 -0.8497  0.8797
 1743SOL     OW 5852   1.478   2.666   0.385 -0.1037 -0.0279 -0.7143
 1743SOL    HW1 5853   1.385   2.650   0.420  0.1447 -4.2933 -1.5522
 1743SOL    HW2 5854   1.472   2.708   0.295 -1.1192  0.6033 -0.3791
 1744SOL     OW 5855   3.976   1.046   0.865  0.4420  0.2075  0.2043
 1744SOL    HW1 5856   3.899   1.108   0.878  1.2370  1.8985 -2.3472
 1744SOL    HW2 5857   3.953   0.976   0.797  0.7422 -0.0899  0.4003
 1745SOL     OW 5858   4.819   0.915   3.130  0.4050 -0.4164 -0.3654
 1745SOL    HW1 5859   4.749   0.911   3.202 -0.5353 -0.4775 -1.2669
 1745SOL    HW2 5860   4.864   1.004   3.132 -0.7089  0.1681 -0.6994
 1746SOL     OW 5861   3.437   1.589   2.977  0.4939  0.5193  0.6378
 1746SOL    HW1 5862   3.417   1.525   2.902 -2.0488  1.8507  0.0530
 1746SOL    HW2 5863   3.513   1.554   3.032  2.2366 -0.7026 -2.3102
 1747SOL     OW 5864   0.434   0.400   3.234 -0.0273  0.1545 -0.3648
 1747SOL    HW1 5865   0.345   0.357   3.225 -0.3346  0.0116  2.4914
 1747SOL    HW2 5866   0.423   0.497   3.252  0.0813 -0.3992  3.4650
 1748SOL     OW 5867   0.654   0.336   4.680  0.2335  0.3619 -0.5861
 1748SOL    HW1 5868   0.739   0.284   4.676  1.0581  1.5920  0.2297
 1748SOL    HW2 5869   0.618   0.350   4.588  1.0434  0.0212 -0.9555
 1749SOL     OW 5870   4.015   2.722   3.537 -0.1266 -0.1739 -0.3207
 1749SOL    HW1 5871   3.987   2.785   3.465  2.8862 -1.0378 -2.4565
 1749SOL    HW2 5872   4.086   2.765   3.594  0.4222 -0.8737 -0.4550
 1750SOL     OW 5873   4.490   0.783   3.237  0.9060 -0.4059 -0.2261
 1750SOL    HW1 5874   4.542   0.809   3.318 -1.4850  0.6889  1.0574
 1750SOL    HW2 5875   4.419   0.718   3.262 -0.5508  0.7537 -1.1946
 1751SOL     OW 5876   2.229   3.753   0.595  0.5753  0.2378  0.1518
 1751SOL    HW1 5877   2.260   3.778   0.503 -2.4557 -3.5069 -2.2638
 1751SOL    HW2 5878   2.191   3.833   0.640  1.1073  2.0383 -2.3635
 1752SOL     OW 5879   4.352   3.707   3.671  0.9916  0.0363 -0.0291
 1752SOL    HW1 5880   4.331   3.782   3.609  2.5517 -0.9595 -1.8756
 1752SOL    HW2 5881   4.370   3.624   3.618  1.6233 -1.0524  1.8014
 1753SOL     OW 5882   2.832   2.541   0.336  0.3792 -0.5378  0.0784
 1753SOL    HW1 5883   2.881   2.489   0.266  0.6018  0.8009 -0.8039
 1753SOL    HW2 5884   2.735   2.544   0.313  0.6319  1.0022 -0.9457
 1754SOL     OW 5885   1.056   4.980   3.080 -0.1308  0.3140  0.1769
 1754SOL    HW1 5886   1.099   4.894   3.110  2.4726  0.9605 -1.3324
 1754SOL    HW2 5887   1.066   5.049   3.151 -0.6864 -0.1543  0.7161
 1755SOL     OW 5888   2.885   4.987   2.579  0.9388  0.8237  0.6819
 1755SOL    HW1 5889   2.792   4.996   2.613 -0.4347  0.2606 -2.6158
 1755SOL    HW2 5890   2.900   5.052   2.504  2.6905 -0.1513  0.1154
 1756SOL     OW 5891   0.101   4.630   1.204 -0.8285 -0.2489  0.6884
 1756SOL    HW1 5892   0.126   4.669   1.115 -1.8251 -0.6546  0.2248
 1756SOL    HW2 5893   0.041   4.694   1.252 -2.1857 -1.0132  0.0715
 1757SOL     OW 5894   3.940   4.110   4.404 -0.9452  0.4011 -0.5458
 1757SOL    HW1 5895   3.941   4.210   4.406 -2.9626  0.4703 -0.1109
 1757SOL    HW2 5896   3.895   4.077   4.487  1.1659 -0.9647  0.1205
 1758SOL     OW 5897   0.020   0.975   2.666  0.1058  0.3102 -0.7583
 1758SOL    HW1 5898   0.098   0.994   2.725 -0.2111  2.3319 -0.9176
 1758SOL    HW2 5899  -0.065   0.998   2.715 -0.2992 -0.2124 -1.1983
 1759SOL     OW 5900   4.793   1.379   3.794  0.3712  0.2040  0.5416
 1759SOL    HW1 5901   4.756   1.463   3.834 -0.9383  0.4150 -1.0153
 1759SOL    HW2 5902   4.837   1.400   3.707 -1.1462 -0.8603 -0.5364
 1760SOL     OW 5903   4.914   0.076   0.466  0.2220  1.1551 -0.0456
 1760SOL    HW1 5904   4.985   0.128   0.418 -1.5077  2.6230 -1.1644
 1760SOL    HW2 5905   4.933  -0.022   0.458  1.3474  1.4632 -1.5615
 1761SOL     OW 5906   1.928   3.121   0.528 -0.3372 -0.8435 -0.0420
 1761SOL    HW1 5907   2.000   3.183   0.560 -1.5539 -0.0869  1.3344
 1761SOL    HW2 5908   1.966   3.029   0.516  0.8469 -0.4649  0.6531
 1762SOL     OW 5909   0.900   0.930   0.421  0.0373  0.5320 -0.0142
 1762SOL    HW1 5910   0.957   0.860   0.378  0.0646  0.6555 -0.1792
 1762SOL    HW2 5911   0.954   0.982   0.487 -0.9230 -2.3539  3.3634
 1763SOL     OW 5912   0.035   1.361   1.966  0.0470  0.5596 -1.0565
 1763SOL    HW1 5913  -0.026   1.341   2.043  0.7874  2.2118  0.0468
 1763SOL    HW2 5914   0.125   1.321   1.983  1.0711  3.1723  0.4237
 1764SOL     OW 5915   4.638   4.346   4.436 -0.6536 -0.1197  0.1101
 1764SOL    HW1 5916   4.703   4.324   4.508 -1.4688 -0.4884  0.7467
 1764SOL    HW2 5917   4.600   4.438   4.452  1.4527  1.1361 -1.5845
 1765SOL     OW 5918   2.625   3.185   3.041 -0.2863 -0.2231  0.5689
 1765SOL    HW1 5919   2.658   3.098   3.078  1.4110 -0.4014 -1.1647
 1765SOL    HW2 5920   2.526   3.184   3.035 -0.4645 -1.0858  2.7633
 1766SOL     OW 5921   3.486   3.713   2.996  0.3140 -0.4423  0.7472
 1766SOL    HW1 5922   3.571   3.765   2.999  0.6140 -0.8553 -0.1459
 1766SOL    HW2 5923   3.416   3.760   3.050  0.5951  0.8383  0.0399
 1767SOL     OW 5924   0.993   2.412   2.153 -0.2921  0.6090  0.5216
 1767SOL    HW1 5925   1.087   2.398   2.186  0.7331  0.0629 -2.3624
 1767SOL    HW2 5926   0.986   2.503   2.112  0.1875 -0.6532 -2.6460
 1768SOL     OW 5927   2.379   0.884   0.184 -0.7239  0.2693  0.3190
 1768SOL    HW1 5928   2.456   0.820   0.176 -0.1446  0.4268  3.3397
 1768SOL    HW2 5929   2.319   0.853   0.257 -2.4857  1.2534 -0.6498
 1769SOL     OW 5930   2.596   0.879   3.981 -0.0732 -0.1892 -0.4008
 1769SOL    HW1 5931   2.566   0.856   4.074 -0.1926 -0.7480 -0.5721
 1769SOL    HW2 5932   2.538   0.950   3.943 -0.5484 -0.5495 -0.3544
 1770SOL     OW 5933   0.461   3.297   2.806  0.3239  0.6456 -0.0777
 1770SOL    HW1 5934   0.381   3.238   2.804  0.4501  0.4876 -2.3786
 1770SOL    HW2 5935   0.513   3.280   2.890 -0.9335 -0.7173  0.4604
 1771SOL     OW 5936   2.813   3.572   0.836  0.3016 -0.0530 -0.3552
 1771SOL    HW1 5937   2.757   3.529   0.765 -1.1461  0.8630  0.1778
 1771SOL    HW2 5938   2.843   3.502   0.902 -0.6279 -0.5003 -0.3910
 1772SOL     OW 5939   1.851   0.632   1.543  0.3257 -0.4338  0.0535
 1772SOL    HW1 5940   1.813   0.718   1.509  0.4922  0.8889  2.9390
 1772SOL    HW2 5941   1.950   0.642   1.556  0.4361 -1.2527 -0.1140
 1773SOL     OW 5942   4.893   2.215   2.338 -0.9006  0.1248 -0.5844
 1773SOL    HW1 5943   4.873   2.135   2.394  1.2052  0.8678  1.4274
 1773SOL    HW2 5944   4.987   2.246   2.357 -1.5406  2.8893 -1.4719
 1774SOL     OW 5945   3.300   0.782   2.401  0.1236 -1.1818  0.8280
 1774SOL    HW1 5946   3.251   0.807   2.318  0.7078 -0.0910  0.7987
 1774SOL    HW2 5947   3.393   0.753   2.377  0.1931 -1.1614  1.0721
 1775SOL     OW 5948   1.268   0.379   0.451  0.1024  0.2457  0.3433
 1775SOL    HW1 5949   1.243   0.448   0.519  3.4649 -1.0099  3.1426
 1775SOL    HW2 5950   1.303   0.298   0.497 -0.0792 -1.8763 -2.9276
 1776SOL     OW 5951   1.401   0.896   3.743  0.5212 -1.0129 -0.0566
 1776SOL    HW1 5952   1.399   0.992   3.714  0.7606 -0.4014  1.8545
 1776SOL    HW2 5953   1.433   0.840   3.666 -1.0054  0.2193 -1.6758
 1777SOL     OW 5954   2.860   2.351   1.081 -0.4776 -0.2412  0.0535
 1777SOL    HW1 5955   2.854   2.376   0.984  0.8700 -0.9867 -0.2406
 1777SOL    HW2 5956   2.928   2.409   1.126  0.6952 -1.5090 -0.0251
 1778SOL     OW 5957   4.697   1.360   2.925 -0.5435 -0.4851  0.1834
 1778SOL    HW1 5958   4.609   1.361   2.973 -0.7963 -1.5704 -0.2266
 1778SOL    HW2 5959   4.750   1.280   2.954 -1.0581 -1.6704 -1.9386
 1779SOL     OW 5960   4.770   2.594   0.572 -0.3217 -0.4768  0.3011
 1779SOL    HW1 5961   4.850   2.646   0.602 -0.1107 -1.3334  1.2899
 1779SOL    HW2 5962   4.757   2.516   0.633 -1.6905 -0.5628 -0.0811
 1780SOL     OW 5963   1.352   3.432   2.864  0.0086  0.2909  0.7580
 1780SOL    HW1 5964   1.415   3.371   2.912 -1.0173 -0.3374  1.3491
 1780SOL    HW2 5965   1.354   3.523   2.906  0.3026  0.1877  0.9679
 1781SOL     OW 5966   0.458   1.031   2.065  0.1308  1.2134  0.6690
 1781SOL    HW1 5967   0.517   1.083   2.126  1.6973  1.3529 -0.8987
 1781SOL    HW2 5968   0.512   0.990   1.993 -1.5361  0.2094 -0.0731
 1782SOL     OW 5969   2.106   0.902   2.500 -0.5119  0.5073 -0.5294
 1782SOL    HW1 5970   2.076   0.873   2.592  0.5456  1.0952  0.0134
 1782SOL    HW2 5971   2.203   0.923   2.502 -0.4724  0.4955 -1.8131
 1783SOL     OW 5972   0.080   2.124   4.669 -0.5475 -0.2360 -0.2385
 1783SOL    HW1 5973   0.006   2.110   4.736  0.2425 -0.9565  0.5042
 1783SOL    HW2 5974   0.155   2.174   4.713 -1.4048  2.4207 -1.5664
 1784SOL     OW 5975   2.035   0.538   2.078  0.0018  0.0812 -0.0670
 1784SOL    HW1 5976   2.050   0.546   2.177 -2.4713 -0.5028  0.4144
 1784SOL    HW2 5977   1.955   0.480   2.061 -0.7402  1.6379 -2.3288
 1785SOL     OW 5978   1.605   1.547   0.310 -0.2661  0.0136  0.6054
 1785SOL    HW1 5979   1.599   1.463   0.363 -0.0301  0.3878  1.2381
 1785SOL    HW2 5980   1.579   1.625   0.367 -3.3234  0.1239 -0.7664
 1786SOL     OW 5981   2.090   0.230   0.433  1.0493  0.4391  0.0046
 1786SOL    HW1 5982   2.001   0.212   0.475  1.0535  0.7817  0.1597
 1786SOL    HW2 5983   2.160   0.232   0.504  0.9692  1.6606  0.0742
 1787SOL     OW 5984   3.445   0.590   1.773  0.4857 -0.3247 -0.7452
 1787SOL    HW1 5985   3.356   0.562   1.736  0.8090 -2.3321 -0.1520
 1787SOL    HW2 5986   3.510   0.603   1.698 -0.6840  2.9785 -1.3398
 1788SOL     OW 5987   0.698   1.040   1.635 -0.1526 -0.3800  0.5295
 1788SOL    HW1 5988   0.786   1.079   1.610 -0.3063 -0.3747 -0.0108
 1788SOL    HW2 5989   0.666   0.981   1.561 -0.2665 -0.9460  1.0301
 1789SOL     OW 5990   1.414   4.894   1.949 -0.6086 -0.1509  0.4423
 1789SOL    HW1 5991   1.385   4.990   1.949  0.2957  0.4915 -5.3566
 1789SOL    HW2 5992   1.412   4.859   1.856  1.8344 -4.9903  1.8982
 1790SOL     OW 5993   3.651   1.050   2.105 -0.3805  0.0283 -0.4358
 1790SOL    HW1 5994   3.590   1.021   2.180  0.5583  0.2103  0.4249
 1790SOL    HW2 5995   3.634   0.994   2.024  1.7350 -3.4730  1.2879
 1791SOL     OW 5996   1.326   0.519   3.554  0.8903  0.3548 -0.3222
 1791SOL    HW1 5997   1.343   0.441   3.494  0.5325  1.3648 -1.8085
 1791SOL    HW2 5998   1.370   0.600   3.516  0.1198  1.1621  0.4513
 1792SOL     OW 5999   1.562   2.751   2.974  0.9250 -0.6367  0.0353
 1792SOL    HW1 6000   1.496   2.767   2.901  0.5173 -3.7312 -0.3768
 1792SOL    HW2 6001   1.524   2.784   3.060 -0.3373 -0.6542 -0.4874
 1793SOL     OW 6002   0.498   2.182   2.940  0.8176 -0.1347  0.0406
 1793SOL    HW1 6003   0.576   2.231   2.902  0.4517  1.0079  0.6972
 1793SOL    HW2 6004   0.523   2.143   3.029  0.0928  2.0596  1.2845
 1794SOL     OW 6005   0.962   1.924   1.056 -0.2391 -0.2842  0.3354
 1794SOL    HW1 6006   0.903   1.913   1.135 -0.6962  2.6020  0.5187
 1794SOL    HW2 6007   1.054   1.890   1.077 -0.2355  0.8104  2.3061
 1795SOL     OW 6008   1.969   3.841   0.909  0.2170  0.2061 -0.8503
 1795SOL    HW1 6009   1.926   3.845   0.999  1.1383 -0.1706 -0.3809
 1795SOL    HW2 6010   1.973   3.934   0.870 -0.4498  0.3262 -0.6398
 1796SOL     OW 6011   4.552   4.611   2.452 -0.0263  0.1253  0.8275
 1796SOL    HW1 6012   4.524   4.610   2.356  0.3529  1.0494  0.6984
 1796SOL    HW2 6013   4.501   4.682   2.501 -2.7397 -2.4686  2.1301
 1797SOL     OW 6014   4.148   0.589   4.637 -0.2875 -0.3669 -0.2624
 1797SOL    HW1 6015   4.175   0.555   4.727 -2.9693 -1.5337  0.2028
 1797SOL    HW2 6016   4.188   0.679   4.622  1.1713 -0.6556  1.5810
 1798SOL     OW 6017   1.678   4.090   0.448  0.4431  0.4824 -0.0900
 1798SOL    HW1 6018   1.661   4.044   0.535 -2.8699  1.5931 -0.0077
 1798SOL    HW2 6019   1.669   4.025   0.373 -1.3539  0.3477  0.1931
 1799SOL     OW 6020   2.611   0.920   2.969  0.3451 -0.4350  0.6756
 1799SOL    HW1 6021   2.644   0.841   3.022  0.7846  0.1211  1.2396
 1799SOL    HW2 6022   2.685   0.985   2.956 -0.6457  1.1700  2.5767
 1800SOL     OW 6023   3.105   1.135   3.077 -0.1177 -0.1625  0.6723
 1800SOL    HW1 6024   3.103   1.060   3.010 -3.0094  2.3786 -2.4436
 1800SOL    HW2 6025   3.166   1.207   3.043 -0.0644  0.3635  1.8582
 1801SOL     OW 6026   2.617   0.442   1.944  0.2278 -0.2243  0.0887
 1801SOL    HW1 6027   2.682   0.493   1.888 -0.1587  1.7281  1.3379
 1801SOL    HW2 6028   2.663   0.363   1.985  0.8380 -0.9509 -1.8874
 1802SOL     OW 6029   0.139   1.384   3.167  0.4005  0.8152 -0.2789
 1802SOL    HW1 6030   0.039   1.387   3.176  0.3863 -0.8343  0.4339
 1802SOL    HW2 6031   0.179   1.449   3.232 -0.1384 -2.0608  3.2745
 1803SOL     OW 6032   3.765   0.152   4.647 -0.3079  0.2442 -0.3550
 1803SOL    HW1 6033   3.728   0.220   4.709 -1.6692  1.0889 -1.9959
 1803SOL    HW2 6034   3.777   0.193   4.556  1.5219 -0.9585 -0.7200
 1804SOL     OW 6035   1.216   4.253   0.640 -0.2407 -0.5708  0.5375
 1804SOL    HW1 6036   1.202   4.154   0.653  0.8722 -1.3055 -2.7945
 1804SOL    HW2 6037   1.161   4.284   0.562  2.5618  0.4117 -1.2112
 1805SOL     OW 6038   3.254   2.772   4.076 -0.3744  0.3994  0.2764
 1805SOL    HW1 6039   3.354   2.773   4.081 -0.2633  3.8428  0.0493
 1805SOL    HW2 6040   3.216   2.743   4.163  0.7298 -2.1340  0.0040
 1806SOL     OW 6041   0.873   1.678   2.129 -0.4737  0.4326  0.0595
 1806SOL    HW1 6042   0.894   1.763   2.081 -0.7361  2.2540  2.9019
 1806SOL    HW2 6043   0.827   1.699   2.215  4.8365 -1.9875  4.0868
 1807SOL     OW 6044   0.881   0.730   3.293 -0.3243  0.0069  0.1691
 1807SOL    HW1 6045   0.824   0.673   3.234 -0.3624 -0.3840  0.5737
 1807SOL    HW2 6046   0.973   0.734   3.256 -0.6202  0.6826 -0.5162
 1808SOL     OW 6047   2.246   4.877   2.249 -0.6000  0.3178 -0.3676
 1808SOL    HW1 6048   2.233   4.785   2.284  0.6065  0.6271  0.9673
 1808SOL    HW2 6049   2.226   4.944   2.321 -2.3290  1.1710 -1.5633
 1809SOL     OW 6050   4.914   0.322   3.275  1.1908 -0.4169  0.1528
 1809SOL    HW1 6051   4.961   0.397   3.321 -0.3211  0.4680  0.3494
 1809SOL    HW2 6052   4.903   0.245   3.338  3.2864 -1.0934 -0.2322
 1810SOL     OW 6053   1.752   3.406   4.333 -0.5501  0.5982  0.6107
 1810SOL    HW1 6054   1.667   3.391   4.282  0.2093 -0.6993 -0.3536
 1810SOL    HW2 6055   1.773   3.504   4.336 -2.1206  0.9522  0.9847
 1811SOL     OW 6056   4.233   4.889   0.771 -0.3699  0.5049  0.3008
 1811SOL    HW1 6057   4.174   4.814   0.744 -1.4415  0.6882  2.0190
 1811SOL    HW2 6058   4.269   4.934   0.689 -0.1215 -1.5132 -0.7557
 1812SOL     OW 6059   4.232   1.035   3.606 -0.4451  0.8451  0.2718
 1812SOL    HW1 6060   4.279   1.109   3.655  1.4035  0.1583 -0.3930
 1812SOL    HW2 6061   4.155   1.074   3.555  0.5277  2.3581 -0.1283
 1813SOL     OW 6062   2.148   2.579   4.598 -0.3159 -0.0016 -0.4524
 1813SOL    HW1 6063   2.167   2.559   4.502 -1.3854  2.0934 -1.1759
 1813SOL    HW2 6064   2.107   2.670   4.605 -1.3656 -0.5814  1.8785
 1814SOL     OW 6065   4.593   4.810   3.337 -0.4171 -0.2090  0.3062
 1814SOL    HW1 6066   4.602   4.889   3.276 -1.3852 -0.2169  0.1335
 1814SOL    HW2 6067   4.601   4.726   3.283 -2.4470 -0.2213 -0.0410
 1815SOL     OW 6068   1.309   1.208   1.945  0.3926 -0.0048  0.2810
 1815SOL    HW1 6069   1.224   1.187   1.992  0.3691  0.1177  0.2925
 1815SOL    HW2 6070   1.331   1.134   1.881  0.5325 -0.2670  0.6342
 1816SOL     OW 6071   2.128   2.404   1.085 -0.0942 -0.0597  0.0056
 1816SOL    HW1 6072   2.148   2.489   1.135  0.0141  0.2340 -0.5219
 1816SOL    HW2 6073   2.100   2.427   0.991 -1.9566 -0.5183  0.4174
 1817SOL     OW 6074   3.936   0.134   0.841  0.2654 -0.5454 -0.6141
 1817SOL    HW1 6075   4.033   0.157   0.845  0.5099 -1.5349 -0.5466
 1817SOL    HW2 6076   3.924   0.048   0.791 -0.6112 -0.2625 -0.9242
 1818SOL     OW 6077   0.907   2.934   0.021  0.2877  0.1525 -0.3893
 1818SOL    HW1 6078   0.918   2.834   0.024 -1.6152 -0.1069 -0.4243
 1818SOL    HW2 6079   0.855   2.964   0.101 -1.8243  0.6612 -1.8606
 1819SOL     OW 6080   0.897   4.612   1.672 -0.3124 -0.1511 -0.1462
 1819SOL    HW1 6081   0.949   4.668   1.737 -0.1301 -1.6486  1.0547
 1819SOL    HW2 6082   0.831   4.557   1.721 -1.6994  0.2545 -1.4832
 1820SOL     OW 6083   2.686   0.905   0.303  1.0117 -1.0452 -0.9249
 1820SOL    HW1 6084   2.708   0.847   0.381 -2.2278  0.0215  0.9945
 1820SOL    HW2 6085   2.712   1.000   0.324 -3.6093  0.0604  0.9823
 1821SOL     OW 6086   3.805   2.741   0.354 -0.2128 -0.3334  0.3713
 1821SOL    HW1 6087   3.737   2.668   0.342  0.8443 -1.1742 -0.8001
 1821SOL    HW2 6088   3.772   2.825   0.311 -0.8472 -0.5071  0.5102
 1822SOL     OW 6089   4.963   4.117   1.648  0.0093 -0.7458  0.0717
 1822SOL    HW1 6090   4.999   4.151   1.735 -0.4314 -0.0901  0.0022
 1822SOL    HW2 6091   5.011   4.033   1.623  2.0989  0.5227 -0.4342
 1823SOL     OW 6092   2.045   0.813   0.092  0.1012  0.4391  1.2684
 1823SOL    HW1 6093   1.947   0.793   0.101 -0.2861  0.6752 -1.5930
 1823SOL    HW2 6094   2.064   0.903   0.130  0.0041 -0.9261  5.1060
 1824SOL     OW 6095   2.170   1.592   0.706  0.6993  0.6806 -0.1256
 1824SOL    HW1 6096   2.092   1.530   0.709 -1.7854  3.5852  0.7073
 1824SOL    HW2 6097   2.160   1.653   0.627  1.0168  2.3561  1.0830
 1825SOL     OW 6098   1.865   3.704   4.077  0.3067 -1.7847  0.6156
 1825SOL    HW1 6099   1.859   3.608   4.052 -0.0026 -1.8314  0.8603
 1825SOL    HW2 6100   1.886   3.712   4.174 -0.9377 -1.6198  0.8962
 1826SOL     OW 6101   2.556   4.067   1.231  0.2507 -1.0142 -0.5877
 1826SOL    HW1 6102   2.574   4.145   1.291  1.1419 -0.9897 -0.8646
 1826SOL    HW2 6103   2.458   4.057   1.217  0.1203  0.0140 -0.4892
 1827SOL     OW 6104   3.217   2.063   4.051 -0.5260 -0.1743 -0.1606
 1827SOL    HW1 6105   3.202   1.970   4.083 -1.8578  0.9362  2.7543
 1827SOL    HW2 6106   3.300   2.066   3.994  0.7563 -2.7507  1.4080
 1828SOL     OW 6107   2.446   1.072   0.433 -0.0310 -0.6556 -0.0997
 1828SOL    HW1 6108   2.493   1.028   0.357 -1.3349  0.4396 -1.5972
 1828SOL    HW2 6109   2.483   1.037   0.520  1.9715 -1.4188 -1.1954
 1829SOL     OW 6110   0.833   0.268   2.300 -0.4824  0.1467  0.1723
 1829SOL    HW1 6111   0.866   0.361   2.287  0.6327 -0.4385 -1.5454
 1829SOL    HW2 6112   0.733   0.268   2.305 -0.4680  1.4925  1.0821
 1830SOL     OW 6113   2.129   1.869   4.919 -1.0268 -0.5518 -0.7740
 1830SOL    HW1 6114   2.184   1.875   5.002 -3.1446 -2.7739  0.9519
 1830SOL    HW2 6115   2.149   1.947   4.860  1.4901  0.4437  1.2086
 1831SOL     OW 6116   2.185   3.915   1.797  0.0023  0.4086  0.6388
 1831SOL    HW1 6117   2.222   3.997   1.752 -2.8739  2.1575  1.1551
 1831SOL    HW2 6118   2.259   3.862   1.837  2.0050  2.8222  0.3631
 1832SOL     OW 6119   2.406   1.843   0.642 -0.2129  0.4449  0.3955
 1832SOL    HW1 6120   2.439   1.921   0.696  0.7263  0.0332  0.4423
 1832SOL    HW2 6121   2.419   1.759   0.693 -1.4745  0.2620  0.4527
 1833SOL     OW 6122   4.058   4.872   2.365 -0.7795 -0.3331  0.0212
 1833SOL    HW1 6123   4.022   4.922   2.444 -2.6027  1.2815 -1.7056
 1833SOL    HW2 6124   4.103   4.788   2.396  1.7222  1.8533  3.0494
 1834SOL     OW 6125   2.436   1.878   2.675 -0.1037  0.0880 -0.3852
 1834SOL    HW1 6126   2.351   1.926   2.698  1.0926  2.0000  0.2682
 1834SOL    HW2 6127   2.482   1.850   2.759  1.0520  1.1878 -0.6245
 1835SOL     OW 6128   0.328   4.489   4.718  0.0867  0.0601  0.1313
 1835SOL    HW1 6129   0.276   4.532   4.792  0.0192 -0.7648  0.5748
 1835SOL    HW2 6130   0.422   4.475   4.746 -0.1452 -1.0427  0.3946
 1836SOL     OW 6131   1.684   2.038   0.733 -0.0991 -0.6570 -0.0676
 1836SOL    HW1 6132   1.664   2.108   0.665  1.6129 -0.9161 -0.8814
 1836SOL    HW2 6133   1.614   1.967   0.729  0.2817 -0.9683 -1.9822
 1837SOL     OW 6134   4.989   0.817   1.225 -0.2986  0.5312 -0.4705
 1837SOL    HW1 6135   5.023   0.870   1.303  1.3148 -1.3932  0.2365
 1837SOL    HW2 6136   4.950   0.731   1.258 -2.1331  0.8555 -1.6343
 1838SOL     OW 6137   4.209   2.259   3.676 -0.0223  0.2838 -0.1287
 1838SOL    HW1 6138   4.199   2.336   3.614 -1.0899 -0.2310 -0.6134
 1838SOL    HW2 6139   4.171   2.284   3.766  1.4248  0.9881  0.3266
 1839SOL     OW 6140   3.137   2.627   2.989 -0.5667 -0.4544 -0.4406
 1839SOL    HW1 6141   3.206   2.675   2.935  0.0642 -0.0827  0.6653
 1839SOL    HW2 6142   3.180   2.579   3.065 -1.6019  1.1898  1.3075
 1840SOL     OW 6143   3.367   2.265   2.850  0.7334 -0.0202  0.1246
 1840SOL    HW1 6144   3.429   2.213   2.909 -0.5616  0.3522  1.8729
 1840SOL    HW2 6145   3.419   2.335   2.802  2.2056 -1.7495 -0.9654
 1841SOL     OW 6146   4.714   2.180   0.947 -0.4385  0.5006  0.1923
 1841SOL    HW1 6147   4.665   2.182   1.034 -1.0717  1.3388 -0.1685
 1841SOL    HW2 6148   4.691   2.096   0.898 -2.9707  1.6269 -0.7443
 1842SOL     OW 6149   2.546   3.274   1.165  0.7824 -0.4676 -0.2542
 1842SOL    HW1 6150   2.570   3.185   1.126  2.3283  0.6757 -2.1219
 1842SOL    HW2 6151   2.460   3.266   1.215  0.1498 -2.6963 -1.5210
 1843SOL     OW 6152   3.816   3.760   0.313  0.8608 -0.0095  0.0048
 1843SOL    HW1 6153   3.906   3.779   0.273  1.2745  1.5101  1.5030
 1843SOL    HW2 6154   3.800   3.662   0.313  2.6510 -0.3441 -0.0521
 1844SOL     OW 6155   4.401   0.856   2.413 -0.2457  0.8968  1.4305
 1844SOL    HW1 6156   4.452   0.776   2.443 -1.6769 -0.6743 -0.1100
 1844SOL    HW2 6157   4.450   0.900   2.337 -0.4093  0.2933  0.9673
 1845SOL     OW 6158   0.122   4.250   3.512 -0.0412 -1.5027 -0.0523
 1845SOL    HW1 6159   0.167   4.334   3.480  1.4239 -1.8901  0.8731
 1845SOL    HW2 6160   0.051   4.274   3.577 -1.1815 -0.8755 -1.4687
 1846SOL     OW 6161   2.739   1.492   0.604  0.6932 -0.1981  0.0270
 1846SOL    HW1 6162   2.670   1.478   0.532  1.6270 -0.4715 -0.8409
 1846SOL    HW2 6163   2.717   1.576   0.654  1.6055  1.7043 -2.5120
 1847SOL     OW 6164   2.063   3.612   3.274  0.1230  1.0432 -0.2621
 1847SOL    HW1 6165   2.155   3.590   3.243  0.9910  4.4447 -0.4853
 1847SOL    HW2 6166   1.996   3.566   3.216  1.6689 -0.3095 -1.0389
 1848SOL     OW 6167   3.806   4.453   2.666  0.4520  0.4708  0.0319
 1848SOL    HW1 6168   3.764   4.409   2.587 -1.2933  0.3502  0.9849
 1848SOL    HW2 6169   3.755   4.429   2.749  2.0504  0.8448  1.1646
 1849SOL     OW 6170   4.309   0.993   0.293 -0.3738  0.4146  0.5780
 1849SOL    HW1 6171   4.322   1.086   0.327  1.0410 -0.0533  1.3869
 1849SOL    HW2 6172   4.387   0.967   0.236 -2.8867  1.3936 -3.8047
 1850SOL     OW 6173   4.448   3.072   4.019 -0.2296 -0.7296  0.1346
 1850SOL    HW1 6174   4.465   2.989   4.072  1.7167  0.1098  0.9127
 1850SOL    HW2 6175   4.426   3.047   3.924 -1.2900 -2.1516  0.7127
 1851SOL     OW 6176   0.996   3.001   1.226  0.5241  0.0380  0.7769
 1851SOL    HW1 6177   1.005   3.087   1.177  2.9522 -0.9453 -0.6605
 1851SOL    HW2 6178   1.048   3.006   1.312  0.7746 -0.0529  0.6290
 1852SOL     OW 6179   3.738   0.555   3.291  0.2560  0.3414 -0.4391
 1852SOL    HW1 6180   3.725   0.480   3.227  2.6779 -0.8006  0.2755
 1852SOL    HW2 6181   3.653   0.606   3.301 -1.2134 -1.7441 -1.6456
 1853SOL     OW 6182   1.444   1.988   3.174  0.8558  0.0801 -0.2559
 1853SOL    HW1 6183   1.409   1.903   3.136 -0.6221  1.4905 -2.1836
 1853SOL    HW2 6184   1.430   1.988   3.273 -1.5553 -0.8324 -0.5406
 1854SOL     OW 6185   3.711   0.339   2.505 -0.0634 -0.3337 -0.5319
 1854SOL    HW1 6186   3.765   0.416   2.471  0.2036  0.1091  0.8165
 1854SOL    HW2 6187   3.733   0.324   2.602 -2.3745 -0.1459  0.0630
 1855SOL     OW 6188   3.914   1.783   4.056 -0.6895  0.2823  0.9043
 1855SOL    HW1 6189   3.832   1.839   4.071 -2.1432 -1.5931  0.2974
 1855SOL    HW2 6190   3.900   1.693   4.096  0.0890 -0.8641 -1.2844
 1856SOL     OW 6191   0.914   0.814   4.707 -0.4952  0.5571  0.1406
 1856SOL    HW1 6192   0.971   0.771   4.637 -2.0581 -2.3523  0.5293
 1856SOL    HW2 6193   0.973   0.865   4.770  1.9526 -3.1250  1.1557
 1857SOL     OW 6194   2.883   3.071   1.505 -0.1110 -0.4365  1.2317
 1857SOL    HW1 6195   2.808   3.012   1.537 -1.8163  0.0025 -1.6431
 1857SOL    HW2 6196   2.964   3.016   1.489 -0.5048 -1.3320  2.1696
 1858SOL     OW 6197   3.983   4.474   1.393  0.0319 -0.2877 -0.0472
 1858SOL    HW1 6198   3.936   4.561   1.376 -1.5084 -0.7893  1.3658
 1858SOL    HW2 6199   3.980   4.453   1.491  0.5551 -1.8455 -0.3399
 1859SOL     OW 6200   1.795   3.132   1.551  0.5538 -0.7152  0.2884
 1859SOL    HW1 6201   1.731   3.195   1.595 -1.0793 -0.5793 -2.1029
 1859SOL    HW2 6202   1.754   3.096   1.468  3.1169 -1.6678 -0.6559
 1860SOL     OW 6203   0.775   2.831   1.585 -0.5066  0.1523 -0.1363
 1860SOL    HW1 6204   0.869   2.802   1.605 -0.1562 -0.0961 -1.9840
 1860SOL    HW2 6205   0.715   2.805   1.661  0.3062 -2.7381 -0.3833
 1861SOL     OW 6206   3.336   1.508   3.853 -0.1942 -0.5073  0.2213
 1861SOL    HW1 6207   3.253   1.562   3.866  0.5781  0.1872  2.8908
 1861SOL    HW2 6208   3.320   1.415   3.887  1.3370  0.8858  5.9560
 1862SOL     OW 6209   2.603   3.460   3.693  0.5028 -0.6893  0.0325
 1862SOL    HW1 6210   2.517   3.410   3.705  0.1141  0.2212  1.2353
 1862SOL    HW2 6211   2.618   3.476   3.596 -0.2381 -1.6238 -0.2592
 1863SOL     OW 6212   0.503   1.792   1.484  0.3383 -0.1383 -0.7461
 1863SOL    HW1 6213   0.532   1.769   1.577 -2.5824 -2.5535 -0.3145
 1863SOL    HW2 6214   0.550   1.876   1.455 -0.1663  1.9542  3.6560
 1864SOL     OW 6215   4.528   0.002   4.508 -0.1999  0.0059  0.5357
 1864SOL    HW1 6216   4.571  -0.066   4.567  0.3403  0.4920  0.7227
 1864SOL    HW2 6217   4.461   0.055   4.560  0.0925  0.2648  0.6576
 1865SOL     OW 6218   3.226   1.569   0.705 -0.4140 -0.5867  0.2202
 1865SOL    HW1 6219   3.306   1.627   0.724 -1.2623  0.4445  0.7102
 1865SOL    HW2 6220   3.251   1.501   0.636  0.8928 -0.2829  0.3609
 1866SOL     OW 6221   4.194   0.731   2.270 -0.6359 -0.4237  0.5953
 1866SOL    HW1 6222   4.104   0.749   2.309 -1.3197 -0.6047 -0.8469
 1866SOL    HW2 6223   4.263   0.784   2.319 -2.2300  4.6187 -2.0060
 1867SOL     OW 6224   2.030   0.566   2.347 -0.7939  0.3850 -0.4713
 1867SOL    HW1 6225   2.060   0.626   2.422  1.5249  1.7313 -2.3172
 1867SOL    HW2 6226   1.933   0.546   2.357 -0.7360  1.0829  2.4590
 1868SOL     OW 6227   1.310   2.091   3.899 -0.3700 -0.8770  0.4073
 1868SOL    HW1 6228   1.245   2.034   3.949 -1.7904  0.4868  0.1712
 1868SOL    HW2 6229   1.268   2.125   3.815  0.9584 -0.6668 -0.2008
 1869SOL     OW 6230   4.472   0.820   3.699  0.1799 -0.4014  0.4114
 1869SOL    HW1 6231   4.404   0.854   3.763  0.2584 -1.4266  1.0656
 1869SOL    HW2 6232   4.564   0.845   3.730  0.3354 -2.2400  1.6214
 1870SOL     OW 6233   0.923   4.377   2.849  0.1766  0.4858  0.1961
 1870SOL    HW1 6234   0.942   4.465   2.805  2.3735 -0.6242 -1.2456
 1870SOL    HW2 6235   0.999   4.315   2.834 -0.3517 -1.0191  3.0277
 1871SOL     OW 6236   1.475   4.521   2.859  0.6888 -1.0304  0.0668
 1871SOL    HW1 6237   1.427   4.468   2.929 -0.8674 -1.0050 -0.9248
 1871SOL    HW2 6238   1.526   4.459   2.799 -0.9976 -1.4387 -0.9933
 1872SOL     OW 6239   1.052   4.812   0.142  0.1071  0.7070  0.2367
 1872SOL    HW1 6240   1.030   4.748   0.068 -0.6047  1.2495 -0.0321
 1872SOL    HW2 6241   1.024   4.773   0.230 -1.1697  1.0293 -0.0186
 1873SOL     OW 6242   1.009   2.677   4.057 -0.3376  0.2346 -0.1175
 1873SOL    HW1 6243   1.064   2.761   4.055 -1.0936  0.7409 -0.5428
 1873SOL    HW2 6244   1.039   2.616   3.983  1.4733 -0.7336  1.3456
 1874SOL     OW 6245   2.559   3.389   4.279 -0.1397  0.2768  0.2728
 1874SOL    HW1 6246   2.627   3.405   4.208  1.1330 -0.3352  1.3103
 1874SOL    HW2 6247   2.605   3.362   4.364 -1.7140 -2.6872  0.3431
 1875SOL     OW 6248   1.594   2.453   4.091  0.0651 -0.1448  0.6927
 1875SOL    HW1 6249   1.534   2.416   4.162  0.0350 -0.4789  0.4966
 1875SOL    HW2 6250   1.560   2.543   4.063  0.6824  0.4727  1.8477
 1876SOL     OW 6251   0.146   1.741   0.884  0.7725 -0.5037 -0.5238
 1876SOL    HW1 6252   0.173   1.748   0.788 -0.1758 -1.9092 -0.9254
 1876SOL    HW2 6253   0.115   1.830   0.917  2.9676  0.4736 -0.9111
 1877SOL     OW 6254   0.943   0.177   0.462 -0.0694 -0.5357  0.5357
 1877SOL    HW1 6255   0.851   0.215   0.463 -0.5262 -1.5721  3.0031
 1877SOL    HW2 6256   0.950   0.109   0.389 -0.9219  0.2659 -0.3217
 1878SOL     OW 6257   2.639   3.859   2.199  0.0360 -0.5238  0.0685
 1878SOL    HW1 6258   2.660   3.926   2.271 -1.2161  0.5170 -0.5058
 1878SOL    HW2 6259   2.716   3.855   2.135 -0.0802  0.7661 -0.1765
 1879SOL     OW 6260   1.353   4.018   3.579 -0.1841 -0.7778  0.1102
 1879SOL    HW1 6261   1.263   4.062   3.579 -0.4459 -1.1313  3.1990
 1879SOL    HW2 6262   1.406   4.051   3.501 -0.6110  4.5666  1.7117
 1880SOL     OW 6263   2.776   2.302   4.902 -0.4886 -0.0599  0.6644
 1880SOL    HW1 6264   2.817   2.221   4.944  4.0438  1.8726  0.5969
 1880SOL    HW2 6265   2.838   2.338   4.832 -3.5015  2.1144 -1.1191
 1881SOL     OW 6266   0.844   0.061   0.231  0.1584 -0.0506  0.8070
 1881SOL    HW1 6267   0.758   0.109   0.247 -0.5750 -0.7384 -0.8779
 1881SOL    HW2 6268   0.826  -0.036   0.218  1.2725 -0.3050  1.0813
 1882SOL     OW 6269   2.024   4.516   0.284 -0.8489  0.2950 -0.4135
 1882SOL    HW1 6270   2.063   4.472   0.203 -2.6840  0.7122 -1.5761
 1882SOL    HW2 6271   1.924   4.516   0.278 -1.0049  1.2981  1.3540
 1883SOL     OW 6272   3.419   1.537   2.224 -0.5029  1.1138 -0.1152
 1883SOL    HW1 6273   3.368   1.605   2.172 -1.7241 -0.7477 -1.5017
 1883SOL    HW2 6274   3.450   1.464   2.163 -0.1073 -0.0746  1.4220
 1884SOL     OW 6275   1.418   0.339   3.029  0.0608 -0.5905  0.2568
 1884SOL    HW1 6276   1.466   0.421   2.999 -1.2711  0.8159  1.7063
 1884SOL    HW2 6277   1.378   0.292   2.950 -1.8181  1.9499 -0.4371
 1885SOL     OW 6278   2.444   0.623   2.071  0.3124 -0.9321 -0.1982
 1885SOL    HW1 6279   2.404   0.609   2.162 -1.3721 -2.1550 -1.0624
 1885SOL    HW2 6280   2.496   0.542   2.044  0.9029 -0.5291 -0.2724
 1886SOL     OW 6281   1.176   1.425   4.216 -0.1595 -0.7354  0.3528
 1886SOL    HW1 6282   1.094   1.470   4.251 -0.2215  0.4266 -1.1863
 1886SOL    HW2 6283   1.188   1.337   4.262 -1.1715 -0.0677  1.9875
 1887SOL     OW 6284   2.095   2.852   4.712  0.8871 -0.0478 -0.2963
 1887SOL    HW1 6285   2.034   2.908   4.767 -0.1142  0.7296 -2.1179
 1887SOL    HW2 6286   2.146   2.910   4.648  1.1644 -1.0105 -0.9852
 1888SOL     OW 6287   0.363   1.477   2.605  1.2278  0.1646 -0.0704
 1888SOL    HW1 6288   0.385   1.396   2.551 -0.1925 -0.4423  0.2110
 1888SOL    HW2 6289   0.283   1.458   2.662  2.0979  1.1091  1.5432
 1889SOL     OW 6290   0.923   3.112   3.884  0.8185  0.6329  0.0525
 1889SOL    HW1 6291   0.839   3.071   3.848  0.3920  2.3040 -0.9297
 1889SOL    HW2 6292   0.922   3.107   3.984 -1.1593  1.8984  0.1479
 1890SOL     OW 6293   4.904   4.482   0.053  0.7493  0.4185  0.1415
 1890SOL    HW1 6294   4.991   4.454   0.093  1.3551  1.6969 -0.2349
 1890SOL    HW2 6295   4.871   4.410  -0.008  1.6675  0.0197  0.0950
 1891SOL     OW 6296   4.511   4.847   4.030  0.3252  0.3013  0.0349
 1891SOL    HW1 6297   4.522   4.901   3.947 -0.2044  2.8973  1.5707
 1891SOL    HW2 6298   4.511   4.749   4.006 -0.4664  0.9531 -3.0635
 1892SOL     OW 6299   2.718   0.089   1.611  0.2192  0.3070 -0.5297
 1892SOL    HW1 6300   2.664   0.173   1.604  1.2364  0.8731 -1.9392
 1892SOL    HW2 6301   2.656   0.012   1.630 -0.9544  1.1011 -0.9776
 1893SOL     OW 6302   0.236   0.020   2.257 -0.4663  0.8700 -0.6409
 1893SOL    HW1 6303   0.175   0.061   2.325 -1.2877 -2.0753  0.5388
 1893SOL    HW2 6304   0.323   0.070   2.255 -1.4053  2.6320  0.6244
 1894SOL     OW 6305   3.688   1.317   1.562  0.0755  0.0652  0.4299
 1894SOL    HW1 6306   3.659   1.221   1.558 -1.3424  0.4153  1.6955
 1894SOL    HW2 6307   3.646   1.367   1.486 -1.3115  0.2075  1.2672
 1895SOL     OW 6308   1.846   0.358   2.034 -0.7595 -0.4740 -0.8318
 1895SOL    HW1 6309   1.811   0.267   2.056 -1.4385  0.0060  0.1561
 1895SOL    HW2 6310   1.859   0.366   1.935 -1.0923 -1.4951 -0.9681
 1896SOL     OW 6311   1.384   0.383   4.190 -0.0430  0.2566  0.2548
 1896SOL    HW1 6312   1.291   0.378   4.155  0.1175  1.4180 -0.3887
 1896SOL    HW2 6313   1.394   0.465   4.247  0.3059 -0.4267  1.1907
 1897SOL     OW 6314   3.257   0.448   0.940 -0.1749  0.5764 -0.4295
 1897SOL    HW1 6315   3.229   0.540   0.968  2.1614  1.7965 -1.8035
 1897SOL    HW2 6316   3.196   0.416   0.867  1.4242  2.9690 -3.0311
 1898SOL     OW 6317   2.013   4.899   0.517 -0.1116 -0.7741 -0.8798
 1898SOL    HW1 6318   1.946   4.824   0.518 -0.7143 -0.2850 -1.8828
 1898SOL    HW2 6319   2.021   4.935   0.423  2.1205 -1.2940 -0.9411
 1899SOL     OW 6320   3.244   2.719   4.969  0.1282 -0.3555 -0.7643
 1899SOL    HW1 6321   3.285   2.720   4.878 -3.3153  0.2970 -2.4639
 1899SOL    HW2 6322   3.165   2.780   4.971  1.6775  1.9231  3.5808
 1900SOL     OW 6323   3.227   3.286   0.918 -0.6451 -0.3644 -0.2034
 1900SOL    HW1 6324   3.183   3.246   0.837  1.0449  0.4696 -1.6252
 1900SOL    HW2 6325   3.225   3.386   0.911 -1.6763 -0.2316  1.5123
 1901SOL     OW 6326   4.368   1.139   4.121 -1.1034 -0.2942  0.5790
 1901SOL    HW1 6327   4.341   1.105   4.211  1.0299 -1.1493  0.9574
 1901SOL    HW2 6328   4.405   1.063   4.067 -0.8175  0.5307 -0.4077
 1902SOL     OW 6329   1.019   1.553   3.214  0.0026  0.1968 -0.1852
 1902SOL    HW1 6330   1.081   1.488   3.259 -0.8507  0.5360  1.5739
 1902SOL    HW2 6331   1.040   1.556   3.116 -0.3130 -3.1378 -0.4775
 1903SOL     OW 6332   1.470   2.449   3.251 -0.7981  0.5128 -0.1170
 1903SOL    HW1 6333   1.424   2.447   3.340  0.4834  0.4987  0.5664
 1903SOL    HW2 6334   1.434   2.525   3.196 -2.9961 -0.6261 -0.3930
 1904SOL     OW 6335   2.155   0.178   1.584  0.2113 -0.2984  0.2508
 1904SOL    HW1 6336   2.229   0.183   1.651 -1.4304 -1.1286  2.2353
 1904SOL    HW2 6337   2.115   0.086   1.585 -1.6258  0.4631  0.1321
 1905SOL     OW 6338   1.239   0.643   0.855 -0.1058  0.2104  0.2873
 1905SOL    HW1 6339   1.243   0.743   0.861  0.3461  0.4592 -2.6548
 1905SOL    HW2 6340   1.330   0.608   0.833 -0.3586 -0.8227  0.8244
 1906SOL     OW 6341   0.899   4.807   4.850 -0.0631 -0.5831  0.3199
 1906SOL    HW1 6342   0.850   4.784   4.767  0.6743 -0.3307 -0.1938
 1906SOL    HW2 6343   0.856   4.886   4.894  1.7350  1.8320 -1.8943
 1907SOL     OW 6344   1.129   2.973   3.796 -0.4458 -0.7541 -0.6565
 1907SOL    HW1 6345   1.094   2.941   3.708 -0.9430  2.0838 -1.6014
 1907SOL    HW2 6346   1.056   3.021   3.845  1.1408  2.4650 -1.2035
 1908SOL     OW 6347   0.857   4.182   1.206 -0.0540 -1.0441 -0.0015
 1908SOL    HW1 6348   0.898   4.100   1.245 -0.0876 -3.1067 -3.8197
 1908SOL    HW2 6349   0.910   4.262   1.231 -0.4922 -1.9464  4.5818
 1909SOL     OW 6350   2.587   3.894   4.370 -0.0825  0.6894 -0.3746
 1909SOL    HW1 6351   2.551   3.879   4.462  0.2617  1.0094 -0.1860
 1909SOL    HW2 6352   2.543   3.973   4.329  0.6740  1.3215  0.0078
 1910SOL     OW 6353   2.909   3.009   3.544  0.4095  0.9940  0.5945
 1910SOL    HW1 6354   2.913   2.971   3.637  2.0315 -1.6813 -0.4438
 1910SOL    HW2 6355   2.870   2.942   3.482  0.2688  2.3550 -0.8604
 1911SOL     OW 6356   4.863   4.553   3.328  0.4993  0.4254  0.6518
 1911SOL    HW1 6357   4.772   4.560   3.287  0.9731  2.0075 -0.2258
 1911SOL    HW2 6358   4.869   4.470   3.384 -1.7180  0.6732  1.3334
 1912SOL     OW 6359   3.293   1.005   3.486 -0.7985  0.1814 -0.9137
 1912SOL    HW1 6360   3.298   0.931   3.553 -4.3622  1.0249  0.5407
 1912SOL    HW2 6361   3.379   1.055   3.484  0.3986 -1.6597  0.8584
 1913SOL     OW 6362   4.512   1.514   0.367  0.0474  1.0107  0.8017
 1913SOL    HW1 6363   4.458   1.440   0.326  2.0126  0.0831 -0.2669
 1913SOL    HW2 6364   4.536   1.581   0.296  1.3980  0.7035  0.9529
 1914SOL     OW 6365   2.794   3.377   0.343 -0.1610 -0.2188 -0.1388
 1914SOL    HW1 6366   2.783   3.346   0.438 -0.2876  3.2235  1.1450
 1914SOL    HW2 6367   2.888   3.362   0.313  1.8689  4.0493  2.9928
 1915SOL     OW 6368   4.772   3.683   3.368 -0.1343  0.7000 -0.2794
 1915SOL    HW1 6369   4.718   3.723   3.294 -0.5816  0.8892  0.1455
 1915SOL    HW2 6370   4.719   3.611   3.413  0.4499  0.0078 -0.6725
 1916SOL     OW 6371   3.582   3.098   3.653 -0.1084  0.2054 -0.6448
 1916SOL    HW1 6372   3.524   3.150   3.716 -0.9469 -0.0396 -1.1861
 1916SOL    HW2 6373   3.644   3.039   3.705 -0.9473 -0.1739 -0.0422
 1917SOL     OW 6374   3.721   1.733   4.283 -0.2988 -0.1272  0.2272
 1917SOL    HW1 6375   3.661   1.682   4.221 -0.9267 -0.8334  1.3739
 1917SOL    HW2 6376   3.802   1.678   4.304 -1.4234 -1.1458  2.2125
 1918SOL     OW 6377   2.947   2.459   2.891  0.4038  0.0573 -0.1493
 1918SOL    HW1 6378   3.016   2.527   2.915  1.5737 -0.8856 -0.7321
 1918SOL    HW2 6379   2.940   2.453   2.791  0.5515 -0.8947 -0.1124
 1919SOL     OW 6380   1.393   4.899   4.223  0.1782  0.3786 -0.7638
 1919SOL    HW1 6381   1.409   4.990   4.262  0.5236  0.0580 -0.1245
 1919SOL    HW2 6382   1.420   4.829   4.291 -1.4595 -0.2020 -0.6703
 1920SOL     OW 6383   4.453   1.901   4.497 -0.6898  0.1499 -0.3595
 1920SOL    HW1 6384   4.356   1.917   4.515 -0.1552  1.6395  1.6610
 1920SOL    HW2 6385   4.500   1.989   4.488  0.7904 -0.4672  0.8207
 1921SOL     OW 6386   4.700   2.920   1.144 -0.2734  0.9217 -0.4457
 1921SOL    HW1 6387   4.621   2.948   1.198 -0.8429 -1.6592  0.1865
 1921SOL    HW2 6388   4.673   2.848   1.080  1.3999  0.5823 -0.8140
 1922SOL     OW 6389   3.556   0.412   1.295  0.0952 -0.1464 -0.6404
 1922SOL    HW1 6390   3.600   0.333   1.337  0.3239  0.2385 -0.1439
 1922SOL    HW2 6391   3.466   0.387   1.262  0.9077 -1.1256 -2.2618
 1923SOL     OW 6392   0.783   4.784   3.975 -0.4668  0.5791  0.6750
 1923SOL    HW1 6393   0.818   4.855   4.035 -0.5356  1.6983 -0.5637
 1923SOL    HW2 6394   0.859   4.741   3.926 -0.3166 -0.9360  2.1372
 1924SOL     OW 6395   3.791   0.351   0.791  0.0423 -0.9996 -0.0089
 1924SOL    HW1 6396   3.702   0.332   0.831  0.6344 -2.9746  0.4790
 1924SOL    HW2 6397   3.856   0.279   0.817  1.5082 -0.1875 -1.2226
 1925SOL     OW 6398   0.847   2.499   0.205  0.4013 -0.1988  0.2251
 1925SOL    HW1 6399   0.832   2.530   0.111 -1.0220 -0.6800  0.2808
 1925SOL    HW2 6400   0.873   2.402   0.205  1.5890  0.0986  0.2723
 1926SOL     OW 6401   0.857   2.972   2.879 -0.6338 -0.2136  0.4770
 1926SOL    HW1 6402   0.899   2.936   2.796  1.0668  0.5720  0.9668
 1926SOL    HW2 6403   0.765   3.005   2.858  0.3475  1.4549 -1.4880
 1927SOL     OW 6404   2.331   0.875   1.322  0.4846  0.3529 -0.6463
 1927SOL    HW1 6405   2.402   0.886   1.392 -0.6176 -2.0008  0.9503
 1927SOL    HW2 6406   2.360   0.807   1.256  1.4702  2.4853 -2.5509
 1928SOL     OW 6407   4.781   2.053   2.552 -0.2411 -0.6366  0.8255
 1928SOL    HW1 6408   4.702   1.993   2.540  1.7859 -3.7729  2.0150
 1928SOL    HW2 6409   4.758   2.125   2.618 -2.4813 -0.5614  0.0704
 1929SOL     OW 6410   0.074   0.462   1.723 -0.3981  0.4247  0.1441
 1929SOL    HW1 6411   0.080   0.367   1.692  3.0418  0.4048  0.5030
 1929SOL    HW2 6412   0.116   0.523   1.656 -4.5446  2.2008 -1.2179
 1930SOL     OW 6413   4.783   2.317   4.584 -0.1220 -0.6851 -0.8272
 1930SOL    HW1 6414   4.857   2.254   4.603  1.1811  0.8083 -0.7085
 1930SOL    HW2 6415   4.741   2.347   4.670 -0.6062 -1.2094 -0.8734
 1931SOL     OW 6416   1.758   1.782   2.789  0.3832 -0.6725 -0.5331
 1931SOL    HW1 6417   1.732   1.685   2.784 -2.4855 -0.2855  2.7097
 1931SOL    HW2 6418   1.699   1.835   2.728 -0.4967 -0.7097  0.2446
 1932SOL     OW 6419   3.401   4.806   4.556  0.8680 -0.0489  0.3509
 1932SOL    HW1 6420   3.464   4.872   4.516 -0.5905  1.3394  0.2740
 1932SOL    HW2 6421   3.362   4.844   4.640  2.1115 -1.9763  1.9189
 1933SOL     OW 6422   3.524   4.917   4.969  1.0517  0.3456  0.5766
 1933SOL    HW1 6423   3.514   4.963   4.881 -1.4205 -1.4947 -0.2209
 1933SOL    HW2 6424   3.566   4.827   4.955  0.5545 -0.0020  1.2500
 1934SOL     OW 6425   2.954   4.415   4.155 -0.5154 -0.4402 -0.5026
 1934SOL    HW1 6426   2.921   4.488   4.095 -4.0781  0.0558  1.7667
 1934SOL    HW2 6427   2.923   4.432   4.248  2.5341 -2.5529  1.0682
 1935SOL     OW 6428   2.541   4.938   2.488  0.3091  0.7442 -0.1171
 1935SOL    HW1 6429   2.447   4.970   2.476 -0.0105  0.6683  1.8011
 1935SOL    HW2 6430   2.569   4.884   2.409 -1.3451  0.5875 -0.6202
 1936SOL     OW 6431   1.036   2.140   4.148  0.3993 -0.4280  0.3688
 1936SOL    HW1 6432   1.074   2.056   4.109 -0.8466  0.1799 -2.4175
 1936SOL    HW2 6433   1.002   2.122   4.240  1.0947 -2.7042  0.2313
 1937SOL     OW 6434   1.945   2.757   3.305 -0.0616 -0.9053  0.3682
 1937SOL    HW1 6435   2.021   2.692   3.307  0.9488  0.2290  0.5483
 1937SOL    HW2 6436   1.861   2.710   3.280  1.1527 -1.7522 -2.4429
 1938SOL     OW 6437   0.945   4.247   4.867  0.1454 -0.3738  0.2441
 1938SOL    HW1 6438   0.949   4.345   4.886 -1.9399 -0.9748  4.9731
 1938SOL    HW2 6439   0.864   4.228   4.812 -0.5100  0.3800  0.9195
 1939SOL     OW 6440   0.227   1.589   4.035  0.3873  0.3496 -0.4142
 1939SOL    HW1 6441   0.136   1.612   4.000 -0.7873 -1.0417  1.5272
 1939SOL    HW2 6442   0.228   1.494   4.065  1.7004  1.0174  1.8870
 1940SOL     OW 6443   0.896   1.417   0.572  0.2162  0.5234  0.1405
 1940SOL    HW1 6444   0.995   1.421   0.567  0.2498  1.7981  1.2537
 1940SOL    HW2 6445   0.861   1.502   0.612 -1.5081  1.4173 -2.8900
 1941SOL     OW 6446   1.207   3.958   2.642  0.3019  0.4577 -0.1695
 1941SOL    HW1 6447   1.297   3.915   2.654 -0.5159 -1.3477 -0.2404
 1941SOL    HW2 6448   1.146   3.896   2.593 -1.4680  0.9725  1.2567
 1942SOL     OW 6449   4.521   2.043   0.673  0.1909 -0.7924  0.1269
 1942SOL    HW1 6450   4.506   2.007   0.581 -3.0201  0.3828  0.0769
 1942SOL    HW2 6451   4.453   2.112   0.693  0.5176 -1.3075  3.5856
 1943SOL     OW 6452   2.856   3.299   3.615 -0.0706  0.1094 -0.0192
 1943SOL    HW1 6453   2.865   3.199   3.611 -2.7242 -0.1757 -1.5306
 1943SOL    HW2 6454   2.770   3.323   3.660  0.7353  1.7658  0.7250
 1944SOL     OW 6455   0.570   3.641   4.063  0.6182  0.0931 -0.2586
 1944SOL    HW1 6456   0.574   3.575   3.989 -0.3069 -1.1587  0.7756
 1944SOL    HW2 6457   0.644   3.708   4.051  1.5059 -1.0316 -1.3866
 1945SOL     OW 6458   4.695   0.366   0.519  0.0234  0.8486  0.0967
 1945SOL    HW1 6459   4.626   0.413   0.573  0.6805  1.2999  0.5578
 1945SOL    HW2 6460   4.783   0.411   0.531  1.4573 -2.2799  3.2094
 1946SOL     OW 6461   0.002   4.350   4.187  0.0015 -0.1364 -0.3852
 1946SOL    HW1 6462   0.091   4.312   4.213  0.5259  1.0022 -0.4244
 1946SOL    HW2 6463  -0.070   4.283   4.204  0.3745  0.1818  3.2549
 1947SOL     OW 6464   4.321   0.022   3.105  0.1105  0.4478  0.0429
 1947SOL    HW1 6465   4.309   0.102   3.045  1.4863  2.3104  2.0872
 1947SOL    HW2 6466   4.418  -0.001   3.110  0.1165  0.7353  1.9706
 1948SOL     OW 6467   3.009   1.776   2.844  0.3116 -0.6443  0.5062
 1948SOL    HW1 6468   2.933   1.752   2.784 -1.3026 -2.6686  3.1218
 1948SOL    HW2 6469   3.078   1.704   2.843  1.2359  0.2231 -0.3080
 1949SOL     OW 6470   0.953   2.930   0.778 -0.3312  0.4647 -0.4199
 1949SOL    HW1 6471   0.989   2.996   0.843  0.6746  0.3827 -0.8725
 1949SOL    HW2 6472   1.013   2.927   0.697 -0.7156 -0.5230 -0.6795
 1950SOL     OW 6473   0.587   1.190   2.239  0.3276 -0.0636 -0.3138
 1950SOL    HW1 6474   0.617   1.130   2.314 -0.0502 -1.4404 -1.2396
 1950SOL    HW2 6475   0.620   1.283   2.256 -2.0487  0.3572  2.9992
 1951SOL     OW 6476   4.325   0.032   4.889 -0.5947 -0.1671  0.1661
 1951SOL    HW1 6477   4.278   0.091   4.823  0.8794  2.8509  1.6458
 1951SOL    HW2 6478   4.424   0.045   4.881 -0.2613 -1.6907  1.2904
 1952SOL     OW 6479   3.303   3.053   4.807 -1.8769  0.2312 -0.5169
 1952SOL    HW1 6480   3.384   3.090   4.761  1.0400 -2.8838  1.6533
 1952SOL    HW2 6481   3.307   3.074   4.904 -4.0794  0.4674 -0.4280
 1953SOL     OW 6482   2.071   3.681   1.994  0.7437 -0.4683  0.4090
 1953SOL    HW1 6483   1.974   3.691   1.972  0.9027 -0.9390 -0.5441
 1953SOL    HW2 6484   2.106   3.768   2.029  0.5280  0.4456 -1.5139
 1954SOL     OW 6485   3.037   2.328   4.719  0.1727  0.3107  0.2453
 1954SOL    HW1 6486   2.950   2.282   4.700  0.1288  0.4697  0.0638
 1954SOL    HW2 6487   3.021   2.406   4.780  0.3447 -0.3414  1.1503
 1955SOL     OW 6488   0.450   0.909   4.113 -0.2495  0.0838  0.3645
 1955SOL    HW1 6489   0.430   0.974   4.040 -0.8967  0.4615  0.8611
 1955SOL    HW2 6490   0.364   0.880   4.156  0.1149 -0.1980  0.9153
 1956SOL     OW 6491   1.450   1.450   2.565 -0.4227  0.1036  0.3614
 1956SOL    HW1 6492   1.435   1.487   2.656 -3.1491 -1.5464  0.6889
 1956SOL    HW2 6493   1.425   1.353   2.563  3.6565 -1.1336 -1.1416
 1957SOL     OW 6494   4.249   1.459   0.975 -0.1763 -0.0824 -0.2584
 1957SOL    HW1 6495   4.312   1.392   0.934 -0.1737 -0.5652  0.5235
 1957SOL    HW2 6496   4.155   1.432   0.956 -0.1639  0.0735 -0.5415
 1958SOL     OW 6497   2.832   0.101   0.039  0.3391 -0.7951  0.3140
 1958SOL    HW1 6498   2.782   0.055  -0.035 -0.9302  1.2732 -0.1974
 1958SOL    HW2 6499   2.901   0.162   0.001 -0.2022  0.1548  0.8087
 1959SOL     OW 6500   4.672   1.916   0.866  0.4793  0.4168 -0.1718
 1959SOL    HW1 6501   4.675   1.828   0.915 -2.8145  1.7532  2.9215
 1959SOL    HW2 6502   4.606   1.910   0.792 -1.1458  0.6605  1.1949
 1960SOL     OW 6503   2.027   4.109   3.928  0.4978  0.1943 -2.0085
 1960SOL    HW1 6504   2.051   4.126   3.833  0.6407 -2.2121 -2.4639
 1960SOL    HW2 6505   1.984   4.018   3.937  0.6463  0.2701  0.2357
 1961SOL     OW 6506   0.544   1.253   3.642 -0.1226  0.1529 -0.1676
 1961SOL    HW1 6507   0.642   1.238   3.656 -0.3100 -0.0473  1.0902
 1961SOL    HW2 6508   0.513   1.199   3.564  0.2886 -1.9186  1.0164
 1962SOL     OW 6509   4.859   4.820   1.416  0.5684 -0.2422  0.4702
 1962SOL    HW1 6510   4.842   4.916   1.436  0.0875  0.0145 -1.0598
 1962SOL    HW2 6511   4.928   4.784   1.479  0.5209  1.0013  1.2600
 1963SOL     OW 6512   4.137   1.095   4.965 -0.0338  0.7128 -0.7111
 1963SOL    HW1 6513   4.103   1.024   5.027  1.1490  1.5107  0.9140
 1963SOL    HW2 6514   4.061   1.151   4.932 -0.4629  2.1968  2.4823
 1964SOL     OW 6515   1.165   4.392   1.551 -1.1062 -0.2898 -0.4331
 1964SOL    HW1 6516   1.231   4.385   1.476  2.7527  0.6100  2.5675
 1964SOL    HW2 6517   1.167   4.484   1.588 -0.1138 -1.5280  2.9375
 1965SOL     OW 6518   2.905   3.362   1.015 -0.0770 -0.5656  0.4314
 1965SOL    HW1 6519   2.891   3.429   1.087 -0.8100 -1.1366  0.8270
 1965SOL    HW2 6520   2.870   3.273   1.044 -1.6098 -0.5210 -1.1143
 1966SOL     OW 6521   1.706   2.627   3.318  0.0843 -0.1474 -0.0532
 1966SOL    HW1 6522   1.677   2.723   3.313  0.5663  0.1538  2.0323
 1966SOL    HW2 6523   1.633   2.572   3.360  0.1146 -0.5779 -0.5433
 1967SOL     OW 6524   0.662   0.997   2.411 -1.0500  0.4480  0.1022
 1967SOL    HW1 6525   0.692   0.906   2.440 -2.2861 -0.5152 -1.4843
 1967SOL    HW2 6526   0.653   1.057   2.491  2.8223  0.1911  0.9305
 1968SOL     OW 6527   0.618   0.388   1.042 -0.6357 -0.0976 -0.4252
 1968SOL    HW1 6528   0.632   0.481   1.076  1.4032 -0.7534  0.7168
 1968SOL    HW2 6529   0.521   0.373   1.024 -1.4003  1.3606  1.9978
 1969SOL     OW 6530   0.863   1.200   2.943  0.5649 -0.0254 -0.2550
 1969SOL    HW1 6531   0.778   1.152   2.922  0.0959  2.0063 -3.8435
 1969SOL    HW2 6532   0.933   1.173   2.878  0.7284  2.8064 -1.3931
 1970SOL     OW 6533   0.806   1.606   3.406 -0.2275 -0.5947  0.1791
 1970SOL    HW1 6534   0.754   1.663   3.343 -0.4377 -0.4221  0.5054
 1970SOL    HW2 6535   0.888   1.572   3.360 -0.0654  0.0225 -0.0047
 1971SOL     OW 6536   0.935   1.319   1.802 -0.2136  1.1099 -0.6814
 1971SOL    HW1 6537   0.910   1.370   1.720  4.1725  2.1171 -1.6793
 1971SOL    HW2 6538   0.984   1.379   1.865 -0.6086 -0.4407  1.2029
 1972SOL     OW 6539   4.155   4.768   3.433  0.0448 -0.3787  0.0688
 1972SOL    HW1 6540   4.221   4.809   3.496 -0.9600  0.9220  0.3485
 1972SOL    HW2 6541   4.198   4.753   3.344  0.1945  2.6439 -0.4984
 1973SOL     OW 6542   4.405   2.887   3.481  0.0198 -0.7203  0.1818
 1973SOL    HW1 6543   4.389   2.861   3.386  1.7720  3.0076 -1.3695
 1973SOL    HW2 6544   4.501   2.873   3.504  0.0959  0.3742  0.6170
 1974SOL     OW 6545   4.645   3.828   1.113 -0.3605  0.0868  0.5210
 1974SOL    HW1 6546   4.622   3.880   1.195 -1.3076 -0.4191  0.5822
 1974SOL    HW2 6547   4.744   3.809   1.113  0.0888  2.2278  0.2747
 1975SOL     OW 6548   4.935   4.783   3.159  0.9802  0.1363  0.4778
 1975SOL    HW1 6549   4.979   4.708   3.207  2.3222  0.6991  0.1676
 1975SOL    HW2 6550   4.893   4.749   3.075  3.6105  0.0433 -0.8962
 1976SOL     OW 6551   2.861   2.827   1.263  0.4192  0.1129 -0.5072
 1976SOL    HW1 6552   2.897   2.735   1.281 -0.2369  0.1197  0.9973
 1976SOL    HW2 6553   2.763   2.821   1.242  0.6081  0.3856 -1.5450
 1977SOL     OW 6554   3.083   3.647   3.854  0.5537 -0.6709  0.3136
 1977SOL    HW1 6555   2.998   3.689   3.887  0.1776  0.3661 -1.8203
 1977SOL    HW2 6556   3.064   3.553   3.825  0.1572 -0.4982  0.0025
 1978SOL     OW 6557   2.024   4.142   0.987  0.0984 -0.0781 -0.0634
 1978SOL    HW1 6558   2.123   4.133   0.986 -0.0722 -4.1343 -2.4143
 1978SOL    HW2 6559   1.989   4.120   1.078  1.2746  2.1990  1.0151
 1979SOL     OW 6560   2.284   1.542   2.937 -0.0784  0.3772  0.0847
 1979SOL    HW1 6561   2.190   1.545   2.973 -0.0542  0.4602  0.1416
 1979SOL    HW2 6562   2.312   1.634   2.909 -1.4858 -0.1542 -3.7566
 1980SOL     OW 6563   3.904   4.595   0.223  0.7318 -0.4421 -0.0264
 1980SOL    HW1 6564   3.988   4.620   0.271  1.0801 -0.5955 -0.5515
 1980SOL    HW2 6565   3.827   4.597   0.288  1.2614 -1.0610  0.6331
 1981SOL     OW 6566   0.210   1.524   1.002 -0.7722 -0.2535  0.7795
 1981SOL    HW1 6567   0.121   1.482   1.022 -1.7486  1.5106  0.3772
 1981SOL    HW2 6568   0.196   1.611   0.954  1.1195  0.6323  1.7025
 1982SOL     OW 6569   4.408   4.801   2.581  0.0903 -0.4346  0.6220
 1982SOL    HW1 6570   4.407   4.868   2.655  2.5669 -0.5385  0.8167
 1982SOL    HW2 6571   4.322   4.749   2.583 -1.2543  1.6557  1.3989
 1983SOL     OW 6572   2.291   4.145   0.282 -1.0001 -0.1042  0.8643
 1983SOL    HW1 6573   2.258   4.061   0.238 -3.2111  1.3643 -0.4907
 1983SOL    HW2 6574   2.232   4.167   0.360 -0.0389 -0.1349  1.6075
 1984SOL     OW 6575   1.152   2.812   1.472  0.0451 -0.1016 -0.3545
 1984SOL    HW1 6576   1.158   2.738   1.404 -0.9012 -2.9973  2.4648
 1984SOL    HW2 6577   1.212   2.791   1.549 -1.2406  1.3824  1.1248
 1985SOL     OW 6578   1.281   0.708   4.795  0.5003 -0.1458 -0.0625
 1985SOL    HW1 6579   1.212   0.644   4.830  1.3084  0.2572  2.4628
 1985SOL    HW2 6580   1.244   0.801   4.798  0.2393 -0.1875 -1.3066
 1986SOL     OW 6581   0.265   4.153   2.970 -0.2721 -0.1947 -0.0287
 1986SOL    HW1 6582   0.337   4.103   3.018 -1.2280 -1.1713  0.4423
 1986SOL    HW2 6583   0.200   4.189   3.037  0.1213  1.2737 -0.3980
 1987SOL     OW 6584   1.258   3.422   4.706 -0.2077 -0.8383 -0.6617
 1987SOL    HW1 6585   1.273   3.381   4.616 -0.3266 -1.5077 -0.3816
 1987SOL    HW2 6586   1.332   3.487   4.726  0.7294 -1.9128 -0.5423
 1988SOL     OW 6587   3.120   3.184   1.166 -0.7886 -0.0153 -0.2055
 1988SOL    HW1 6588   3.035   3.133   1.157 -2.8075  2.6459  2.0978
 1988SOL    HW2 6589   3.132   3.244   1.086 -0.9828 -0.4649 -0.5784
 1989SOL     OW 6590   0.833   1.345   4.178  0.5079  0.4883 -0.4144
 1989SOL    HW1 6591   0.803   1.312   4.268 -0.7569  3.8353  0.5251
 1989SOL    HW2 6592   0.794   1.287   4.107 -1.6241 -0.0268  1.0669
 1990SOL     OW 6593   4.244   1.460   3.833 -0.4291  0.3518  0.0770
 1990SOL    HW1 6594   4.323   1.475   3.775  2.8273 -0.6574  3.8264
 1990SOL    HW2 6595   4.214   1.365   3.826 -1.4399  0.7453 -1.3741
 1991SOL     OW 6596   1.119   4.580   0.607  0.6471 -0.1075  0.5231
 1991SOL    HW1 6597   1.149   4.675   0.599  0.2114  0.6021  4.9133
 1991SOL    HW2 6598   1.025   4.577   0.640  0.3436 -2.1154 -0.3857
 1992SOL     OW 6599   3.083   0.550   2.232 -0.5250 -0.6874 -0.0479
 1992SOL    HW1 6600   3.010   0.483   2.217 -0.8336 -0.6317  1.1292
 1992SOL    HW2 6601   3.133   0.527   2.316  0.2563 -0.2232 -0.3738
 1993SOL     OW 6602   4.243   1.849   4.743  0.2436  0.5257 -0.2805
 1993SOL    HW1 6603   4.235   1.866   4.841  2.4033  0.2526 -0.0178
 1993SOL    HW2 6604   4.326   1.798   4.724  0.0982  0.9478 -2.3130
 1994SOL     OW 6605   4.518   2.612   0.484  0.2972  0.2795  0.5416
 1994SOL    HW1 6606   4.616   2.625   0.496  0.8994  0.8937 -3.5683
 1994SOL    HW2 6607   4.481   2.686   0.428 -2.3819 -0.4082  1.2495
 1995SOL     OW 6608   4.722   4.270   0.945  0.2019  0.4187  0.1310
 1995SOL    HW1 6609   4.820   4.255   0.959  0.3639 -0.2660 -1.5425
 1995SOL    HW2 6610   4.671   4.188   0.972  0.6918 -1.7841 -4.5828
 1996SOL     OW 6611   0.604   4.761   0.080 -0.1762 -0.7403  0.2956
 1996SOL    HW1 6612   0.670   4.686   0.078  1.5874  0.6350  2.3474
 1996SOL    HW2 6613   0.648   4.843   0.119 -3.1028  0.2364  1.7973
 1997SOL     OW 6614   3.183   0.550   2.485 -0.6082  0.5276 -0.8111
 1997SOL    HW1 6615   3.243   0.613   2.437  2.3048 -2.3309 -1.2165
 1997SOL    HW2 6616   3.191   0.565   2.584 -0.9635  1.5676 -0.9222
 1998SOL     OW 6617   3.590   1.170   1.805  1.0668 -0.0594  0.8659
 1998SOL    HW1 6618   3.573   1.257   1.760  2.7269 -0.2058 -0.1289
 1998SOL    HW2 6619   3.524   1.157   1.879 -1.9189  0.1104 -1.5911
 1999SOL     OW 6620   3.752   2.554   0.720 -0.3367 -0.3989  0.0723
 1999SOL    HW1 6621   3.816   2.480   0.703  0.5504  0.0271  1.3655
 1999SOL    HW2 6622   3.659   2.517   0.725 -0.0057 -1.2882 -0.1134
 2000SOL     OW 6623   3.883   2.600   2.011  0.0339  0.6487 -0.0184
 2000SOL    HW1 6624   3.788   2.584   1.983 -0.4272  1.9687  0.6949
 2000SOL    HW2 6625   3.943   2.539   1.959 -1.3028 -1.2715  0.5462
 2001SOL     OW 6626   0.037   2.796   3.160  0.2501 -0.0508 -1.0226
 2001SOL    HW1 6627   0.074   2.745   3.238 -1.4166  0.6130  0.2591
 2001SOL    HW2 6628  -0.015   2.733   3.102  1.9293 -0.6524 -1.9245
 2002SOL     OW 6629   3.897   1.541   3.074 -0.0678  0.1254  1.0939
 2002SOL    HW1 6630   3.907   1.637   3.046 -0.5869  0.5114  2.1462
 2002SOL    HW2 6631   3.815   1.532   3.131 -0.5479 -1.1298  0.2415
 2003SOL     OW 6632   2.878   3.861   2.619 -0.4374 -0.1261 -0.1292
 2003SOL    HW1 6633   2.967   3.823   2.643 -0.0218  1.7093  1.4547
 2003SOL    HW2 6634   2.806   3.795   2.644  0.4316 -1.7681 -1.7395
 2004SOL     OW 6635   4.707   0.215   0.946  0.7965 -0.2746  0.2720
 2004SOL    HW1 6636   4.788   0.272   0.936  1.1201 -1.1419 -3.7838
 2004SOL    HW2 6637   4.653   0.218   0.861 -2.1742 -1.6365  1.9272
 2005SOL     OW 6638   0.784   4.554   0.999 -0.6056 -0.1565  0.6360
 2005SOL    HW1 6639   0.761   4.558   1.097 -2.3319 -1.7935  0.3445
 2005SOL    HW2 6640   0.754   4.467   0.961 -1.3600  1.0423 -1.7028
 2006SOL     OW 6641   2.951   3.504   0.088 -0.3346  0.8114 -0.5805
 2006SOL    HW1 6642   2.937   3.575   0.157  1.6327  0.8348 -0.1412
 2006SOL    HW2 6643   2.893   3.425   0.108  0.0631  0.8935  1.0240
 2007SOL     OW 6644   1.133   1.343   3.340  0.0555  0.2470  0.4166
 2007SOL    HW1 6645   1.233   1.348   3.345  0.1347  0.0016 -0.5404
 2007SOL    HW2 6646   1.095   1.327   3.431  0.9550 -0.6710  0.6466
 2008SOL     OW 6647   2.536   4.556   1.528 -0.0427 -0.1975 -0.6906
 2008SOL    HW1 6648   2.486   4.626   1.477  1.1394  1.0123 -0.2645
 2008SOL    HW2 6649   2.479   4.521   1.602 -1.7738 -1.9497 -2.7101
 2009SOL     OW 6650   1.745   2.543   0.251 -0.0125 -0.1555 -0.4671
 2009SOL    HW1 6651   1.786   2.452   0.257 -0.0929 -0.1298  0.8041
 2009SOL    HW2 6652   1.666   2.540   0.190 -0.3443 -1.0763 -0.0089
 2010SOL     OW 6653   1.009   4.628   3.865 -0.2594 -0.0420  0.0155
 2010SOL    HW1 6654   1.016   4.678   3.779  2.6684  1.3773  0.9269
 2010SOL    HW2 6655   0.985   4.533   3.847  1.8430 -0.1971 -2.5516
 2011SOL     OW 6656   0.661   4.802   1.234  0.6878  0.4888 -0.4101
 2011SOL    HW1 6657   0.630   4.876   1.293  0.8161  2.1716 -2.3354
 2011SOL    HW2 6658   0.612   4.806   1.147  1.6624 -0.8820 -1.0613
 2012SOL     OW 6659   2.580   2.769   1.228 -0.8658 -0.0573 -0.0699
 2012SOL    HW1 6660   2.514   2.696   1.208 -0.9187 -0.1469  0.4225
 2012SOL    HW2 6661   2.548   2.822   1.306 -1.5886  1.4350 -1.3202
 2013SOL     OW 6662   3.658   3.732   3.907 -0.2455  0.2564 -0.3449
 2013SOL    HW1 6663   3.666   3.829   3.884 -0.8990  0.1598 -1.0091
 2013SOL    HW2 6664   3.690   3.717   4.001  1.7525  0.7828 -0.8881
 2014SOL     OW 6665   2.227   0.740   4.332  0.7127 -0.9282 -0.1129
 2014SOL    HW1 6666   2.237   0.738   4.432 -0.1074  0.5108  0.0149
 2014SOL    HW2 6667   2.147   0.687   4.305  0.5930 -0.8236  0.0394
 2015SOL     OW 6668   0.168   0.761   1.709  0.8979 -0.3905 -0.1406
 2015SOL    HW1 6669   0.183   0.678   1.763  4.3649 -0.8691 -1.5804
 2015SOL    HW2 6670   0.222   0.836   1.748 -1.4277  1.0275  0.5600
 2016SOL     OW 6671   1.582   1.460   3.022  0.3145  0.5216  0.6591
 2016SOL    HW1 6672   1.599   1.552   3.056 -0.8861  0.3205  1.9114
 2016SOL    HW2 6673   1.575   1.397   3.099 -1.2068 -0.1864 -0.0034
 2017SOL     OW 6674   4.464   2.027   1.832  0.3792 -0.4823 -0.9421
 2017SOL    HW1 6675   4.411   2.067   1.907  0.3499  2.3835 -2.3658
 2017SOL    HW2 6676   4.435   1.933   1.817 -0.4262 -0.7618  1.8386
 2018SOL     OW 6677   1.154   3.906   4.776 -0.9853  0.6759 -0.1298
 2018SOL    HW1 6678   1.253   3.889   4.785 -0.7531  2.1897  0.3945
 2018SOL    HW2 6679   1.136   3.949   4.688 -0.9870  1.6108  0.3161
 2019SOL     OW 6680   2.822   1.647   1.686 -0.2186  0.6176  0.7736
 2019SOL    HW1 6681   2.845   1.572   1.748 -0.8084 -0.2040  0.0194
 2019SOL    HW2 6682   2.741   1.623   1.632  0.3397  1.2559 -0.3924
 2020SOL     OW 6683   1.392   4.524   1.383  0.2520 -0.2497 -0.8664
 2020SOL    HW1 6684   1.474   4.467   1.375  1.4774  1.3132 -0.1056
 2020SOL    HW2 6685   1.335   4.513   1.302 -0.0257 -3.1795 -0.3728
 2021SOL     OW 6686   4.349   3.308   3.559 -0.0412  0.1539  0.0515
 2021SOL    HW1 6687   4.276   3.360   3.515  0.5784  0.9435 -0.0494
 2021SOL    HW2 6688   4.354   3.332   3.656  3.5789  4.3372 -0.8819
 2022SOL     OW 6689   1.405   1.190   3.992  0.5350 -0.0621 -0.5607
 2022SOL    HW1 6690   1.361   1.106   3.959  1.2019 -1.2761  1.4496
 2022SOL    HW2 6691   1.335   1.254   4.022  0.0502 -0.6847 -0.3361
 2023SOL     OW 6692   0.025   2.437   1.896 -0.0845 -0.2034  1.0641
 2023SOL    HW1 6693   0.015   2.348   1.942 -0.8939 -0.1049  1.0996
 2023SOL    HW2 6694   0.120   2.465   1.899  0.2650 -1.2863  0.6485
 2024SOL     OW 6695   4.409   3.042   4.914 -0.3541  0.0332  0.5972
 2024SOL    HW1 6696   4.326   3.000   4.950  0.0724 -0.7519  0.6710
 2024SOL    HW2 6697   4.426   3.129   4.962 -0.5962 -0.2803  1.2621
 2025SOL     OW 6698   4.150   3.705   4.264 -0.1140  0.4157 -0.5019
 2025SOL    HW1 6699   4.140   3.700   4.164 -0.2532 -1.2637 -0.4308
 2025SOL    HW2 6700   4.169   3.614   4.300 -0.1520  0.9882  1.0308
 2026SOL     OW 6701   4.333   3.587   1.195 -0.1334 -0.1601  0.5927
 2026SOL    HW1 6702   4.244   3.560   1.159 -0.3133  0.1837  0.7748
 2026SOL    HW2 6703   4.356   3.679   1.161  0.7879 -0.7924 -0.5927
 2027SOL     OW 6704   2.074   4.189   4.974 -0.0172 -0.2915  0.3676
 2027SOL    HW1 6705   2.005   4.181   5.047 -0.2815  1.7353  0.3826
 2027SOL    HW2 6706   2.120   4.101   4.963 -1.8092 -1.3814  1.1458
 2028SOL     OW 6707   4.581   1.699   1.055  0.3702  0.5320  0.2461
 2028SOL    HW1 6708   4.517   1.767   1.091  4.0773  3.4870  2.0037
 2028SOL    HW2 6709   4.650   1.678   1.125  1.6662 -2.0773 -1.6425
 2029SOL     OW 6710   0.303   3.064   4.401  0.5263 -0.3976 -0.9559
 2029SOL    HW1 6711   0.312   2.986   4.464  0.8976 -0.9491 -1.6729
 2029SOL    HW2 6712   0.386   3.120   4.405 -0.4743  1.0588  0.9515
 2030SOL     OW 6713   4.597   3.211   4.209  0.7208 -0.2170  0.2987
 2030SOL    HW1 6714   4.560   3.202   4.117 -0.1230 -1.3767  0.7212
 2030SOL    HW2 6715   4.535   3.167   4.274  0.3460  2.1936  1.6693
 2031SOL     OW 6716   1.761   0.245   4.690 -0.1944 -0.0936 -0.2474
 2031SOL    HW1 6717   1.847   0.207   4.657  0.9489  2.0584  0.0761
 2031SOL    HW2 6718   1.769   0.265   4.788 -0.7885  0.8003 -0.3675
 2032SOL     OW 6719   0.606   2.672   1.861  0.8823  0.0543 -1.1022
 2032SOL    HW1 6720   0.595   2.770   1.878 -0.6785 -0.1657 -0.6882
 2032SOL    HW2 6721   0.623   2.625   1.947 -2.8867 -0.5412 -0.4930
 2033SOL     OW 6722   3.788   2.894   3.772 -0.2583  0.6995  0.5887
 2033SOL    HW1 6723   3.808   2.964   3.704  0.9241 -2.2659 -2.4001
 2033SOL    HW2 6724   3.846   2.909   3.853  3.8206  0.5383 -1.9921
 2034SOL     OW 6725   1.693   2.716   2.676  0.2152 -0.1036  0.6355
 2034SOL    HW1 6726   1.702   2.810   2.709  0.4170 -0.0949  0.5606
 2034SOL    HW2 6727   1.754   2.656   2.729  2.6383  0.3441 -1.4322
 2035SOL     OW 6728   3.007   3.973   1.650 -0.1963 -0.1799  0.3907
 2035SOL    HW1 6729   3.067   4.034   1.598 -1.3388  1.2281  0.6641
 2035SOL    HW2 6730   2.911   3.996   1.630 -0.6632 -0.2880  2.3063
 2036SOL     OW 6731   2.904   2.548   4.843  0.4125  0.0989 -0.4490
 2036SOL    HW1 6732   2.921   2.548   4.942 -0.6017 -4.1441 -0.0753
 2036SOL    HW2 6733   2.941   2.632   4.803  2.0930  1.3688  3.2819
 2037SOL     OW 6734   1.935   3.326   0.823 -0.0796 -0.3940 -0.2354
 2037SOL    HW1 6735   1.837   3.331   0.803 -0.3766 -0.8208  1.0668
 2037SOL    HW2 6736   1.965   3.413   0.862 -0.2924 -0.8002  0.8554
 2038SOL     OW 6737   1.410   2.347   4.239  0.1393 -0.5622  0.2596
 2038SOL    HW1 6738   1.330   2.334   4.181  2.0352 -1.2048 -2.4357
 2038SOL    HW2 6739   1.394   2.421   4.304 -1.5916  1.3870 -2.2217
 2039SOL     OW 6740   3.374   3.070   3.348 -0.5946 -0.6614 -0.2097
 2039SOL    HW1 6741   3.311   3.076   3.425 -1.6290  1.4822 -1.1475
 2039SOL    HW2 6742   3.467   3.092   3.379 -1.1967  1.4770  0.2724
 2040SOL     OW 6743   2.789   4.375   2.576  0.1446 -0.2982 -0.5146
 2040SOL    HW1 6744   2.831   4.365   2.486 -1.4847 -0.5963 -1.2725
 2040SOL    HW2 6745   2.836   4.316   2.641  1.4205  0.0022 -1.1171
 2041SOL     OW 6746   2.694   1.764   2.710  0.8017 -0.9285 -0.3724
 2041SOL    HW1 6747   2.668   1.809   2.625  0.3016 -0.5876 -0.0489
 2041SOL    HW2 6748   2.675   1.666   2.704 -0.9680 -0.6424 -0.0166
 2042SOL     OW 6749   4.903   1.060   1.671  0.6552 -0.1243 -0.4922
 2042SOL    HW1 6750   4.946   0.976   1.638 -1.5159 -1.4515 -0.1445
 2042SOL    HW2 6751   4.828   1.085   1.610  0.9624  1.3122 -0.3154
 2043SOL     OW 6752   3.149   1.315   1.241 -0.0257  0.5036 -0.5001
 2043SOL    HW1 6753   3.150   1.336   1.144 -0.5129 -2.3751 -1.2015
 2043SOL    HW2 6754   3.242   1.321   1.277  0.4187  0.0155 -1.5301
 2044SOL     OW 6755   2.261   2.095   4.805 -0.7341 -0.6854  0.5701
 2044SOL    HW1 6756   2.263   2.146   4.719  1.2539 -3.2661 -1.0561
 2044SOL    HW2 6757   2.304   2.149   4.877 -0.5657  0.7281 -0.5489
 2045SOL     OW 6758   3.665   4.147   0.791 -0.5687  0.4675  0.1268
 2045SOL    HW1 6759   3.615   4.096   0.861 -0.4608  1.0822  0.6623
 2045SOL    HW2 6760   3.612   4.227   0.763  0.0273  1.0315  0.5764
 2046SOL     OW 6761   0.774   4.292   4.411 -0.2176 -0.2976  0.4909
 2046SOL    HW1 6762   0.839   4.247   4.351  0.4149  0.2103  0.7781
 2046SOL    HW2 6763   0.779   4.252   4.503  1.0021  0.9143  0.9914
 2047SOL     OW 6764   1.483   4.551   3.196 -0.4336  0.7310 -0.2471
 2047SOL    HW1 6765   1.428   4.634   3.186  0.2625  0.9794 -2.5690
 2047SOL    HW2 6766   1.576   4.576   3.223 -0.3050  0.6983 -0.6489
 2048SOL     OW 6767   0.946   0.573   0.764  0.1292  0.1253 -0.5284
 2048SOL    HW1 6768   0.902   0.629   0.834  0.4776 -0.6543  0.3366
 2048SOL    HW2 6769   1.034   0.540   0.798  0.1523 -0.5413 -1.1981
 2049SOL     OW 6770   4.953   1.821   0.656  0.4111 -0.0428  0.2881
 2049SOL    HW1 6771   4.988   1.838   0.748  2.2534 -0.8237 -0.2185
 2049SOL    HW2 6772   4.871   1.765   0.661 -1.8313  3.0737  1.6125
 2050SOL     OW 6773   1.245   0.004   4.481  0.4540  0.5833 -0.3624
 2050SOL    HW1 6774   1.234  -0.083   4.529 -0.9875  0.0405 -1.5918
 2050SOL    HW2 6775   1.340   0.034   4.489  0.8160 -0.7185  0.7120
 2051SOL     OW 6776   4.851   0.432   4.325  0.4974 -0.3337 -0.0847
 2051SOL    HW1 6777   4.791   0.507   4.299 -0.3667 -1.0751 -0.2692
 2051SOL    HW2 6778   4.800   0.366   4.380  1.6954  0.0683  1.5896
 2052SOL     OW 6779   3.753   2.243   0.463  0.3311  0.6849  0.4741
 2052SOL    HW1 6780   3.853   2.232   0.470  0.3459 -1.5137 -1.9722
 2052SOL    HW2 6781   3.712   2.230   0.553  2.1480  0.3642  1.3023
 2053SOL     OW 6782   0.894   1.906   0.291  0.1104  0.0080  0.2003
 2053SOL    HW1 6783   0.799   1.926   0.312  0.1059 -2.0704  2.5224
 2053SOL    HW2 6784   0.906   1.898   0.192 -2.0438  0.4923 -0.1375
 2054SOL     OW 6785   0.790   2.154   0.653  0.2176 -0.5457 -0.0032
 2054SOL    HW1 6786   0.845   2.114   0.727  1.2635  0.4096 -0.2354
 2054SOL    HW2 6787   0.851   2.193   0.584 -0.7018 -2.2072 -1.8530
 2055SOL     OW 6788   4.151   2.401   1.317  0.6191 -0.4383  0.5235
 2055SOL    HW1 6789   4.053   2.412   1.328  0.6182 -0.5950  0.6789
 2055SOL    HW2 6790   4.200   2.464   1.378  0.6154 -1.5453  1.7205
 2056SOL     OW 6791   1.547   2.811   2.379  0.5109 -0.3523  0.6683
 2056SOL    HW1 6792   1.570   2.779   2.471 -2.4696  2.7571  2.7557
 2056SOL    HW2 6793   1.615   2.876   2.347  1.8536 -1.8593  0.3212
 2057SOL     OW 6794   1.042   2.004   2.922 -0.4004 -0.2769  0.2835
 2057SOL    HW1 6795   1.038   1.954   3.009  2.4649 -1.9513 -0.4235
 2057SOL    HW2 6796   1.126   2.059   2.919 -1.2692  1.0434 -0.8013
 2058SOL     OW 6797   4.950   3.418   0.858  0.6863  0.2129  0.0208
 2058SOL    HW1 6798   5.034   3.433   0.910  0.0082  0.8130  0.9933
 2058SOL    HW2 6799   4.956   3.463   0.769  0.8756  1.4450  0.6393
 2059SOL     OW 6800   3.377   0.697   3.368 -0.2965  0.4103  0.7083
 2059SOL    HW1 6801   3.367   0.719   3.465 -1.4244 -0.5315  0.8266
 2059SOL    HW2 6802   3.312   0.750   3.314  2.1812  3.0769  0.0678
 2060SOL     OW 6803   4.774   0.853   0.183 -0.2168  0.5500 -0.5167
 2060SOL    HW1 6804   4.828   0.786   0.132 -1.9422  0.4701 -2.3893
 2060SOL    HW2 6805   4.814   0.868   0.273  1.2625 -1.5747 -0.7668
 2061SOL     OW 6806   0.293   3.973   1.699  0.1626 -0.4988  0.0310
 2061SOL    HW1 6807   0.267   3.943   1.607  1.5277 -1.2676 -0.1382
 2061SOL    HW2 6808   0.254   3.910   1.767 -1.3588  0.4208  0.0465
 2062SOL     OW 6809   1.355   4.847   1.294 -0.6527 -0.5694  0.8406
 2062SOL    HW1 6810   1.358   4.765   1.352 -0.5178 -1.1092  0.0847
 2062SOL    HW2 6811   1.415   4.917   1.332 -0.8138 -0.7906  1.5279
 2063SOL     OW 6812   4.527   0.512   4.621  0.7128 -0.1573  0.5171
 2063SOL    HW1 6813   4.475   0.436   4.659 -0.5007  0.0702 -0.6122
 2063SOL    HW2 6814   4.574   0.561   4.695 -1.8061  0.4652  1.8148
 2064SOL     OW 6815   0.004   2.429   3.039  0.1348  0.4439  0.0534
 2064SOL    HW1 6816  -0.061   2.502   3.018  0.8203  0.8928 -0.5423
 2064SOL    HW2 6817  -0.023   2.384   3.124 -0.2939  1.3942  0.4367
 2065SOL     OW 6818   4.163   2.155   0.880  0.4654  0.0995  0.0423
 2065SOL    HW1 6819   4.238   2.120   0.937  2.3872 -0.2426 -2.5065
 2065SOL    HW2 6820   4.119   2.231   0.927  2.4107  0.3186  1.6865
 2066SOL     OW 6821   2.059   0.573   4.933 -0.4934 -0.4131 -0.3007
 2066SOL    HW1 6822   1.978   0.515   4.926 -1.1858  0.6165 -1.1964
 2066SOL    HW2 6823   2.049   0.636   5.010  0.0337 -1.1202  0.3618
 2067SOL     OW 6824   3.989   0.809   0.714 -0.8746 -0.7145 -0.3092
 2067SOL    HW1 6825   4.044   0.732   0.748  1.9798  0.6646 -1.4014
 2067SOL    HW2 6826   3.915   0.775   0.657 -0.2467 -2.6671 -0.0264
 2068SOL     OW 6827   1.696   0.718   1.891 -0.2637 -0.2785 -1.1641
 2068SOL    HW1 6828   1.743   0.651   1.949 -0.9256  1.4742  1.5701
 2068SOL    HW2 6829   1.763   0.767   1.836  0.4534 -1.5905 -1.5132
 2069SOL     OW 6830   1.451   4.902   0.753  0.4869  0.7624 -0.0143
 2069SOL    HW1 6831   1.472   4.922   0.657  0.8889  2.9692  0.4852
 2069SOL    HW2 6832   1.515   4.950   0.812  0.4751 -0.8624  1.3987
 2070SOL     OW 6833   0.972   2.100   4.409 -0.1594 -0.0544  0.5483
 2070SOL    HW1 6834   1.049   2.048   4.445  0.4746  0.0004 -0.6787
 2070SOL    HW2 6835   0.919   2.138   4.485 -0.0087 -1.5581  1.4405
 2071SOL     OW 6836   3.658   1.493   3.196  0.5305  0.5275 -0.2161
 2071SOL    HW1 6837   3.661   1.557   3.273 -1.0034  2.7112 -1.8522
 2071SOL    HW2 6838   3.578   1.433   3.206 -0.9754  2.2767 -1.0901
 2072SOL     OW 6839   3.144   0.866   0.828 -0.6964 -0.3322  0.4075
 2072SOL    HW1 6840   3.119   0.875   0.731 -0.5643 -3.1303  0.0316
 2072SOL    HW2 6841   3.063   0.846   0.882 -0.7439  1.0625  0.8738
 2073SOL     OW 6842   0.332   3.756   4.688  0.1795  1.0992  0.4072
 2073SOL    HW1 6843   0.360   3.661   4.696 -1.3584  0.6417  0.6788
 2073SOL    HW2 6844   0.234   3.761   4.666  0.5251  2.6011 -0.9925
 2074SOL     OW 6845   3.609   4.459   2.188 -0.8047 -0.0509 -0.5174
 2074SOL    HW1 6846   3.607   4.554   2.157 -1.5527  0.5122  1.1434
 2074SOL    HW2 6847   3.675   4.449   2.263 -1.6509 -0.5372  0.1814
 2075SOL     OW 6848   1.814   0.021   1.603  0.2280 -0.2617 -0.2839
 2075SOL    HW1 6849   1.823   0.008   1.504  2.1601 -2.4613  0.0978
 2075SOL    HW2 6850   1.785   0.115   1.621 -1.3903 -0.1443 -2.9576
 2076SOL     OW 6851   3.795   1.246   2.533 -0.2344  0.6784 -0.0359
 2076SOL    HW1 6852   3.704   1.288   2.541  0.2467  1.8994 -0.7249
 2076SOL    HW2 6853   3.844   1.257   2.619 -1.3546 -1.5696  0.9615
 2077SOL     OW 6854   0.173   1.655   1.752 -0.4013  0.4030  0.5012
 2077SOL    HW1 6855   0.103   1.699   1.808  0.0239 -0.6179  1.8820
 2077SOL    HW2 6856   0.254   1.715   1.747 -0.9743  1.1384 -0.2680
 2078SOL     OW 6857   0.361   1.210   2.434  0.1893  1.0380 -0.9379
 2078SOL    HW1 6858   0.326   1.135   2.491  2.1954  1.0867  0.4810
 2078SOL    HW2 6859   0.399   1.173   2.349 -2.7174  0.9483 -2.2904
 2079SOL     OW 6860   0.598   1.686   4.459 -0.3491 -0.0906  0.0317
 2079SOL    HW1 6861   0.556   1.756   4.401 -0.4756  0.0684  0.3110
 2079SOL    HW2 6862   0.527   1.627   4.497 -0.1911 -0.7678 -0.7060
 2080SOL     OW 6863   1.641   3.599   1.820 -0.2670 -0.2313 -0.1197
 2080SOL    HW1 6864   1.718   3.578   1.880 -0.4092 -0.6851 -0.0883
 2080SOL    HW2 6865   1.555   3.591   1.872 -0.4945 -1.9576 -0.6770
 2081SOL     OW 6866   3.752   2.435   0.288 -0.0325 -0.0393  0.6412
 2081SOL    HW1 6867   3.732   2.374   0.365 -0.3745 -1.9640 -0.8892
 2081SOL    HW2 6868   3.843   2.475   0.300  0.2006 -0.8370  1.7034
 2082SOL     OW 6869   1.543   1.014   2.696 -0.4536  0.2285 -0.5484
 2082SOL    HW1 6870   1.623   1.061   2.660 -0.7488  1.3392  0.1810
 2082SOL    HW2 6871   1.519   0.938   2.636  0.7149  0.3111 -1.1523
 2083SOL     OW 6872   2.563   3.081   2.549 -0.2399 -0.0345 -0.1072
 2083SOL    HW1 6873   2.569   3.029   2.464  0.2796 -2.5125  1.3510
 2083SOL    HW2 6874   2.493   3.041   2.608  1.2841 -0.1352  1.7138
 2084SOL     OW 6875   4.132   0.807   0.411  0.4870  0.0657 -0.1186
 2084SOL    HW1 6876   4.199   0.818   0.485 -0.6041 -0.9064  1.0690
 2084SOL    HW2 6877   4.149   0.874   0.340  1.9211  0.6768  0.7663
 2085SOL     OW 6878   2.789   4.656   2.431  0.0711  0.7174  0.3796
 2085SOL    HW1 6879   2.886   4.676   2.423  0.2737  0.8879  2.5677
 2085SOL    HW2 6880   2.769   4.626   2.525 -1.7519 -0.6879 -0.3892
 2086SOL     OW 6881   2.222   2.449   0.784 -0.1342 -0.2170 -0.0483
 2086SOL    HW1 6882   2.187   2.357   0.764  0.2155 -0.2238 -0.6682
 2086SOL    HW2 6883   2.146   2.510   0.806 -0.3681 -0.6612  0.3897
 2087SOL     OW 6884   0.951   3.389   2.446 -1.0204 -0.1859 -0.4871
 2087SOL    HW1 6885   1.040   3.394   2.492 -1.3295  3.3762  0.0132
 2087SOL    HW2 6886   0.886   3.339   2.504 -0.3385  0.6839  1.0991
 2088SOL     OW 6887   2.523   2.985   1.051 -0.8770 -0.1738  0.4083
 2088SOL    HW1 6888   2.605   2.928   1.051  1.1808  2.5761  0.0429
 2088SOL    HW2 6889   2.492   2.999   1.145 -1.0028 -1.2439  0.5442
 2089SOL     OW 6890   1.016   4.265   3.835  0.4614 -0.0834 -0.4027
 2089SOL    HW1 6891   0.956   4.261   3.755  1.6698 -0.5617 -1.3262
 2089SOL    HW2 6892   1.088   4.196   3.825  0.4091 -0.4221  1.2998
 2090SOL     OW 6893   3.027   2.742   2.108  0.4537  0.2056  0.8434
 2090SOL    HW1 6894   2.952   2.683   2.078  0.1073 -0.1954  2.3868
 2090SOL    HW2 6895   3.023   2.828   2.058  1.8089 -1.4917 -2.4859
 2091SOL     OW 6896   0.195   1.079   1.645 -0.2302 -0.3698 -1.1145
 2091SOL    HW1 6897   0.176   1.177   1.645 -1.8556 -0.5857 -3.8131
 2091SOL    HW2 6898   0.157   1.037   1.728 -1.8642  0.9191 -1.1610
 2092SOL     OW 6899   2.535   0.253   4.782  0.3369 -0.3772 -0.0985
 2092SOL    HW1 6900   2.447   0.216   4.810  0.1605 -0.6526 -0.9946
 2092SOL    HW2 6901   2.553   0.229   4.687  0.9128  0.5489 -0.2363
 2093SOL     OW 6902   1.918   3.877   1.806 -0.0119  0.8645  0.1270
 2093SOL    HW1 6903   1.890   3.966   1.772  1.7857  1.1211 -0.8201
 2093SOL    HW2 6904   2.018   3.868   1.799  0.2605  0.0245  3.2243
 2094SOL     OW 6905   3.456   4.530   1.941 -0.0485 -0.4270  0.0833
 2094SOL    HW1 6906   3.530   4.465   1.961 -2.5157 -3.1406  1.2319
 2094SOL    HW2 6907   3.429   4.576   2.025 -0.0929  0.0340 -0.1840
 2095SOL     OW 6908   0.206   1.045   3.300  0.5410  0.2130 -0.9289
 2095SOL    HW1 6909   0.115   1.086   3.290 -0.5523 -1.2886  1.7000
 2095SOL    HW2 6910   0.216   0.971   3.233  0.9811  2.0972 -3.0486
 2096SOL     OW 6911   1.251   2.538   0.974 -0.3475 -0.4573  0.0107
 2096SOL    HW1 6912   1.173   2.480   0.952 -0.2457  0.2472 -2.5971
 2096SOL    HW2 6913   1.319   2.531   0.901  0.3509  1.7608  0.3653
 2097SOL     OW 6914   2.406   2.995   1.688 -0.6066  0.2891  0.4049
 2097SOL    HW1 6915   2.432   3.081   1.732  1.1573 -0.1326  0.2584
 2097SOL    HW2 6916   2.321   3.009   1.637  0.7767  2.6295 -1.5058
 2098SOL     OW 6917   2.863   0.081   2.349 -0.3625 -0.3648 -0.5348
 2098SOL    HW1 6918   2.898   0.163   2.304 -3.5771  1.3237 -0.2923
 2098SOL    HW2 6919   2.851   0.009   2.281 -0.6970  0.5662 -1.5031
 2099SOL     OW 6920   0.632   0.448   2.210  0.6721  0.2690  0.1172
 2099SOL    HW1 6921   0.548   0.425   2.160  1.4220 -1.0204 -0.6160
 2099SOL    HW2 6922   0.697   0.492   2.148  0.3375  1.8070  0.8250
 2100SOL     OW 6923   2.667   1.863   4.746  0.4387  0.8386  1.3585
 2100SOL    HW1 6924   2.603   1.808   4.693  0.8313  1.8894 -0.2648
 2100SOL    HW2 6925   2.750   1.810   4.765 -0.1254  0.1128  1.8451
 2101SOL     OW 6926   2.198   1.568   0.260  0.6406 -0.0922  0.3048
 2101SOL    HW1 6927   2.147   1.643   0.301  1.1247 -0.9191  2.5256
 2101SOL    HW2 6928   2.296   1.591   0.258  0.7122 -0.3772  0.3774
 2102SOL     OW 6929   3.190   2.053   4.711 -0.2200 -0.3785  0.0844
 2102SOL    HW1 6930   3.095   2.060   4.681 -0.2237  2.2406  0.4139
 2102SOL    HW2 6931   3.199   2.091   4.803  1.5405  2.3737 -1.0905
 2103SOL     OW 6932   0.844   1.349   2.568 -0.9423  0.2416  0.0852
 2103SOL    HW1 6933   0.820   1.419   2.501  1.0394  0.5566 -0.3523
 2103SOL    HW2 6934   0.798   1.369   2.655 -4.0228 -0.4962 -1.2318
 2104SOL     OW 6935   4.077   2.483   1.884  1.2918  0.6946 -0.8164
 2104SOL    HW1 6936   4.158   2.454   1.935  0.8604 -0.4413 -0.7316
 2104SOL    HW2 6937   4.051   2.411   1.819 -0.5797  0.2941  0.2966
 2105SOL     OW 6938   1.850   1.053   2.630  0.5990  0.7279  0.0041
 2105SOL    HW1 6939   1.779   1.115   2.595  0.1496  1.3252  1.8389
 2105SOL    HW2 6940   1.914   1.031   2.557 -2.1214 -0.8316 -2.1261
 2106SOL     OW 6941   0.389   1.769   0.655 -0.3867 -0.2584 -0.3318
 2106SOL    HW1 6942   0.399   1.777   0.556 -2.3136  1.9280 -0.4435
 2106SOL    HW2 6943   0.448   1.837   0.700  2.3717 -2.8375  0.2646
 2107SOL     OW 6944   3.502   0.285   0.317  0.0876  0.1402  0.1574
 2107SOL    HW1 6945   3.570   0.235   0.371 -1.1296 -0.8101  0.8968
 2107SOL    HW2 6946   3.504   0.252   0.223  1.7326  1.2899 -0.2510
 2108SOL     OW 6947   2.724   0.685   3.071 -0.3111  1.1949  0.3994
 2108SOL    HW1 6948   2.768   0.608   3.026 -0.6328  0.9328  0.5293
 2108SOL    HW2 6949   2.764   0.698   3.161 -1.9310 -0.4113  1.4162
 2109SOL     OW 6950   4.334   3.289   1.450  0.9626 -0.5098 -0.6573
 2109SOL    HW1 6951   4.343   3.193   1.426  2.7648 -0.0840 -1.8275
 2109SOL    HW2 6952   4.415   3.339   1.422  0.0234  1.3993 -0.1741
 2110SOL     OW 6953   2.573   2.513   1.094  0.6577  0.5148 -0.6735
 2110SOL    HW1 6954   2.531   2.472   1.013  1.6098 -0.0181 -0.9112
 2110SOL    HW2 6955   2.636   2.448   1.135 -3.2194 -1.2553  3.3592
 2111SOL     OW 6956   4.744   0.735   0.708 -0.1120 -0.2851  0.1583
 2111SOL    HW1 6957   4.668   0.670   0.712  0.7227 -1.3799 -0.9121
 2111SOL    HW2 6958   4.798   0.728   0.792 -0.7814  0.0096  0.6256
 2112SOL     OW 6959   4.449   0.000   1.345 -0.2688  0.0075 -0.1287
 2112SOL    HW1 6960   4.526  -0.053   1.312  1.2245 -0.2486  3.3345
 2112SOL    HW2 6961   4.479   0.092   1.370 -1.2714  0.1906  0.4745
 2113SOL     OW 6962   3.534   0.926   1.116 -0.0433  0.2364 -0.0695
 2113SOL    HW1 6963   3.450   0.937   1.170 -0.2925 -0.2213 -0.3602
 2113SOL    HW2 6964   3.593   0.859   1.161 -1.4387 -2.2639 -1.7278
 2114SOL     OW 6965   2.090   3.985   4.319 -0.5893 -0.6911 -1.4257
 2114SOL    HW1 6966   2.002   3.962   4.276  0.0359 -1.5787 -2.2789
 2114SOL    HW2 6967   2.073   4.039   4.402 -1.9782 -1.5096 -1.1340
 2115SOL     OW 6968   0.132   4.069   2.719  0.5293  0.7597 -0.1476
 2115SOL    HW1 6969   0.136   3.970   2.734  1.6329  0.7077 -0.6658
 2115SOL    HW2 6970   0.160   4.117   2.803 -1.7740  0.7052  0.7099
 2116SOL     OW 6971   3.427   3.035   2.703 -0.5735  0.4967 -0.2941
 2116SOL    HW1 6972   3.380   3.029   2.614 -1.0268  1.2637 -0.1165
 2116SOL    HW2 6973   3.420   3.129   2.738  1.8072  0.8602 -0.6384
 2117SOL     OW 6974   3.039   1.015   1.393  0.4427  0.2546 -0.2772
 2117SOL    HW1 6975   2.961   0.958   1.367  0.9390 -0.3037 -0.5829
 2117SOL    HW2 6976   3.038   1.100   1.340 -2.5754  2.5147  2.9864
 2118SOL     OW 6977   1.497   4.322   0.526 -0.0882  0.1978 -0.4293
 2118SOL    HW1 6978   1.427   4.293   0.591 -0.6738  3.1123  0.3577
 2118SOL    HW2 6979   1.502   4.255   0.452  2.2615 -4.6054  3.4957
 2119SOL     OW 6980   0.555   4.677   2.256 -0.0535  0.8023 -0.1351
 2119SOL    HW1 6981   0.464   4.717   2.243 -1.6770 -2.0482  1.4056
 2119SOL    HW2 6982   0.556   4.584   2.219  0.1242 -1.5769  4.9984
 2120SOL     OW 6983   3.742   4.699   1.812 -0.1993  0.3970  0.4940
 2120SOL    HW1 6984   3.827   4.648   1.800 -1.8970 -2.8176  0.9550
 2120SOL    HW2 6985   3.755   4.770   1.881  2.6392  1.6178 -1.1188
 2121SOL     OW 6986   2.594   2.711   0.867 -0.8265  0.4230 -0.3174
 2121SOL    HW1 6987   2.560   2.628   0.823  0.4334 -0.6089  0.5961
 2121SOL    HW2 6988   2.627   2.690   0.958  6.8070  0.0102 -2.4975
 2122SOL     OW 6989   4.534   0.432   4.109 -0.0817  0.3630 -0.0614
 2122SOL    HW1 6990   4.608   0.480   4.061  2.2696 -2.6273  0.2306
 2122SOL    HW2 6991   4.553   0.431   4.207 -0.1632 -0.8686 -0.0365
 2123SOL     OW 6992   4.073   1.439   4.756  0.8778  0.1423  0.7240
 2123SOL    HW1 6993   4.038   1.528   4.785  0.3555  1.4353 -3.1751
 2123SOL    HW2 6994   4.055   1.427   4.658 -1.8147 -5.6483  1.5201
 2124SOL     OW 6995   1.956   1.835   1.409 -0.3399  0.2082 -0.6972
 2124SOL    HW1 6996   2.056   1.837   1.418 -0.3478 -1.8958  0.5316
 2124SOL    HW2 6997   1.916   1.904   1.470  0.3047 -0.6445  0.7271
 2125SOL     OW 6998   2.099   4.037   1.368  0.3381 -0.5299  0.5229
 2125SOL    HW1 6999   2.095   4.066   1.463 -1.7468 -1.5605  0.8049
 2125SOL    HW2 7000   2.024   4.079   1.317 -0.1554 -2.0023 -0.0284
 2126SOL     OW 7001   2.013   2.389   1.616  0.3005 -0.0173  0.3495
 2126SOL    HW1 7002   1.976   2.314   1.561  0.5502  0.7081 -0.8383
 2126SOL    HW2 7003   1.946   2.414   1.686 -1.6630  1.3875 -1.8641
 2127SOL     OW 7004   4.048   4.182   1.419  0.1008 -0.2898  0.2954
 2127SOL    HW1 7005   4.058   4.104   1.356  2.1356 -1.5931  2.1172
 2127SOL    HW2 7006   4.053   4.267   1.367  4.4862 -1.1978 -1.1580
 2128SOL     OW 7007   0.414   0.634   0.547  0.1721  0.3169  0.3369
 2128SOL    HW1 7008   0.496   0.615   0.601 -0.4343 -2.9160  0.2965
 2128SOL    HW2 7009   0.440   0.663   0.455  1.1936  2.5665  1.2566
 2129SOL     OW 7010   1.998   1.674   2.644 -0.4559  0.5260  0.9820
 2129SOL    HW1 7011   2.010   1.591   2.589 -4.4777  0.7742 -0.6546
 2129SOL    HW2 7012   1.923   1.660   2.709 -1.3770  2.8457  0.5278
 2130SOL     OW 7013   4.352   2.289   0.532  0.5773 -0.7883  0.1616
 2130SOL    HW1 7014   4.311   2.303   0.622  3.0407 -1.9018  1.5450
 2130SOL    HW2 7015   4.374   2.378   0.492  0.2540 -0.2853  1.0719
 2131SOL     OW 7016   2.393   1.917   0.015  0.5149  0.3204 -0.1512
 2131SOL    HW1 7017   2.409   1.946   0.109  2.0550 -2.8132  0.6666
 2131SOL    HW2 7018   2.454   1.968  -0.046  0.6316  1.2653  0.7247
 2132SOL     OW 7019   2.935   4.586   0.894  0.1834 -0.5807  0.3456
 2132SOL    HW1 7020   2.934   4.487   0.883  0.1106 -0.7147  1.4389
 2132SOL    HW2 7021   2.993   4.627   0.824 -1.3507 -1.2106 -1.4003
 2133SOL     OW 7022   1.289   4.011   0.077  0.0590  0.1341  0.4169
 2133SOL    HW1 7023   1.373   3.993   0.128  0.6122  1.4408  0.0270
 2133SOL    HW2 7024   1.295   3.971  -0.014  0.0828 -0.1394  0.5400
 2134SOL     OW 7025   2.891   2.824   3.364  0.5647  0.1598  0.2543
 2134SOL    HW1 7026   2.980   2.783   3.383  0.3773  0.2284  1.3572
 2134SOL    HW2 7027   2.853   2.783   3.281  0.9574 -0.9644  0.6013
 2135SOL     OW 7028   0.785   0.308   0.658 -0.8279 -0.0555 -0.2205
 2135SOL    HW1 7029   0.837   0.391   0.639  1.2783 -0.9913  1.1583
 2135SOL    HW2 7030   0.715   0.327   0.728 -0.9778  0.7473 -0.5863
 2136SOL     OW 7031   0.927   3.252   3.585 -0.0695  0.1291 -0.1008
 2136SOL    HW1 7032   0.829   3.240   3.572 -0.2460 -2.0219  2.4471
 2136SOL    HW2 7033   0.949   3.249   3.683  2.8352 -2.6520 -0.6785
 2137SOL     OW 7034   3.459   0.802   4.895  0.4763 -1.3961  0.3405
 2137SOL    HW1 7035   3.465   0.745   4.977  1.5879 -1.3213  0.3244
 2137SOL    HW2 7036   3.544   0.795   4.844 -0.4825 -2.0544 -1.2307
 2138SOL     OW 7037   1.184   3.082   0.572  1.1812 -0.7383 -0.1886
 2138SOL    HW1 7038   1.178   3.181   0.558  2.8280 -0.8691 -2.4068
 2138SOL    HW2 7039   1.190   3.062   0.670  0.8160  1.3426  0.2996
 2139SOL     OW 7040   0.996   3.907   2.829 -0.5757  0.4735 -0.4362
 2139SOL    HW1 7041   0.960   3.984   2.883  0.9812  0.9225  0.0344
 2139SOL    HW2 7042   1.085   3.933   2.792 -1.2397 -0.1365 -2.5800
 2140SOL     OW 7043   3.569   1.442   1.333 -0.0094 -0.4833 -0.5110
 2140SOL    HW1 7044   3.565   1.379   1.256 -4.3163  2.2631 -2.9204
 2140SOL    HW2 7045   3.609   1.528   1.304  3.5996 -1.0297  2.1019
 2141SOL     OW 7046   1.500   1.504   2.280  0.5838 -0.1778 -0.0300
 2141SOL    HW1 7047   1.462   1.412   2.271  0.9665 -0.3510  0.0693
 2141SOL    HW2 7048   1.540   1.514   2.372 -1.0820  0.7147  0.6453
 2142SOL     OW 7049   1.031   3.687   1.019  0.1073  0.8333  0.4651
 2142SOL    HW1 7050   1.074   3.775   0.999  0.5756  0.1004 -2.2435
 2142SOL    HW2 7051   1.091   3.613   0.988 -0.6557 -0.4286  1.8758
 2143SOL     OW 7052   1.308   4.227   4.749  0.1342  0.1027  0.2733
 2143SOL    HW1 7053   1.268   4.146   4.704 -0.5045  0.0424  0.9202
 2143SOL    HW2 7054   1.404   4.210   4.767  0.1603 -0.2655 -0.1688
 2144SOL     OW 7055   1.379   0.230   2.407  0.4581  0.0509 -0.5146
 2144SOL    HW1 7056   1.288   0.269   2.394  0.1554 -0.4091  0.1992
 2144SOL    HW2 7057   1.409   0.246   2.501 -0.1766 -2.4490  0.1798
 2145SOL     OW 7058   2.492   3.638   0.301 -0.3251 -0.1902 -0.2293
 2145SOL    HW1 7059   2.520   3.587   0.382  1.2454 -0.7225 -1.0703
 2145SOL    HW2 7060   2.456   3.727   0.328 -0.0993 -0.4766  1.0531
 2146SOL     OW 7061   2.710   3.766   1.886 -0.0498  0.3558 -0.3616
 2146SOL    HW1 7062   2.794   3.781   1.939  1.9555  0.2011 -3.2549
 2146SOL    HW2 7063   2.734   3.740   1.792 -3.3798  1.0341 -1.5381
 2147SOL     OW 7064   3.460   3.719   4.132 -0.0783 -0.8341 -0.2315
 2147SOL    HW1 7065   3.476   3.687   4.039  0.8373  1.0127 -0.7705
 2147SOL    HW2 7066   3.545   3.759   4.168 -0.7162 -0.5331  0.9772
 2148SOL     OW 7067   3.383   2.900   1.602  0.0672 -0.1518 -0.0482
 2148SOL    HW1 7068   3.460   2.915   1.664 -0.5690  1.4229  0.4146
 2148SOL    HW2 7069   3.409   2.928   1.509  0.8910 -2.1447 -0.4624
 2149SOL     OW 7070   1.123   3.370   0.323 -0.3579 -0.0746 -0.4731
 2149SOL    HW1 7071   1.123   3.275   0.290 -3.3633 -0.4673  0.3068
 2149SOL    HW2 7072   1.160   3.430   0.253  1.5902 -1.7761 -1.0083
 2150SOL     OW 7073   4.243   3.921   3.267  0.2420 -0.0761 -0.8954
 2150SOL    HW1 7074   4.252   4.001   3.206 -0.5843 -0.1817 -1.1715
 2150SOL    HW2 7075   4.262   3.949   3.361 -1.8904  0.9224 -0.7020
 2151SOL     OW 7076   3.295   1.010   1.229  0.6523 -0.3052 -0.0753
 2151SOL    HW1 7077   3.215   1.035   1.175  2.6370  3.9751 -1.5168
 2151SOL    HW2 7078   3.291   1.055   1.318  2.5789  2.5246 -1.2664
 2152SOL     OW 7079   3.602   4.332   4.923 -0.6929  0.4971 -0.0420
 2152SOL    HW1 7080   3.649   4.395   4.860 -2.0288 -1.0958 -2.8301
 2152SOL    HW2 7081   3.655   4.248   4.931 -2.0391 -0.5707 -1.7120
 2153SOL     OW 7082   1.238   4.470   1.177 -0.4958 -0.5602 -0.1231
 2153SOL    HW1 7083   1.231   4.489   1.079 -0.5915  0.8165  0.1292
 2153SOL    HW2 7084   1.152   4.432   1.210 -0.9623  0.3077 -0.3118
 2154SOL     OW 7085   2.246   4.211   3.480  0.0906  0.2451  0.3236
 2154SOL    HW1 7086   2.239   4.172   3.389  0.1493  0.4822  0.2154
 2154SOL    HW2 7087   2.343   4.224   3.503  0.1205 -0.7035  0.8054
 2155SOL     OW 7088   0.315   3.045   2.845  0.1328 -0.1996 -0.3983
 2155SOL    HW1 7089   0.264   3.068   2.762 -0.4131 -0.3852 -0.1208
 2155SOL    HW2 7090   0.251   3.041   2.922  0.1590 -2.7622 -0.4485
 2156SOL     OW 7091   0.653   1.851   3.046 -0.2654  0.5034 -1.1022
 2156SOL    HW1 7092   0.730   1.835   2.984  0.1140 -2.0000 -0.0942
 2156SOL    HW2 7093   0.686   1.865   3.139 -0.8598 -4.6156  0.1934
 2157SOL     OW 7094   0.848   0.714   1.010 -0.2209  0.3311  0.1241
 2157SOL    HW1 7095   0.809   0.749   1.095  1.1747 -0.7121  1.2520
 2157SOL    HW2 7096   0.901   0.785   0.965 -0.5525  0.7454  0.3829
 2158SOL     OW 7097   0.177   4.002   0.911 -0.0085 -0.8104 -0.1308
 2158SOL    HW1 7098   0.240   4.006   0.989  1.1588 -1.1952 -1.0350
 2158SOL    HW2 7099   0.215   4.054   0.835 -1.5932  0.3580 -0.1523
 2159SOL     OW 7100   1.720   1.855   4.370  0.1935  0.3509 -0.1548
 2159SOL    HW1 7101   1.805   1.897   4.400  0.5263  1.6837 -2.7398
 2159SOL    HW2 7102   1.679   1.910   4.298 -0.2192 -2.8730 -2.6042
 2160SOL     OW 7103   2.960   3.555   2.510  0.1909  0.3188 -0.4423
 2160SOL    HW1 7104   2.870   3.585   2.477  1.1668  2.2741 -1.4775
 2160SOL    HW2 7105   2.949   3.511   2.599 -1.5092  3.0411  0.8290
 2161SOL     OW 7106   3.828   0.239   1.122 -1.1954  0.7020 -0.9181
 2161SOL    HW1 7107   3.844   0.189   1.036 -1.6913 -0.2969 -0.4449
 2161SOL    HW2 7108   3.731   0.235   1.145 -0.8266 -0.6292  0.6157
 2162SOL     OW 7109   2.800   1.800   1.998  1.0897 -1.0066  0.3029
 2162SOL    HW1 7110   2.873   1.840   1.943  1.1648  0.4338  1.3841
 2162SOL    HW2 7111   2.832   1.716   2.042  1.8465 -0.7846  0.1715
 2163SOL     OW 7112   0.311   0.739   3.512 -0.3863 -1.0401 -0.1985
 2163SOL    HW1 7113   0.261   0.678   3.573 -1.6937 -0.3675 -0.5630
 2163SOL    HW2 7114   0.302   0.707   3.418  1.6265 -2.0750 -0.0920
 2164SOL     OW 7115   3.658   2.764   2.993  0.2059  0.3893 -0.3617
 2164SOL    HW1 7116   3.559   2.760   2.993  0.0546  2.2361 -2.1234
 2164SOL    HW2 7117   3.695   2.682   2.948 -0.3821 -1.0921  1.7306
 2165SOL     OW 7118   1.658   1.370   1.551  0.4965  0.0953 -0.2006
 2165SOL    HW1 7119   1.665   1.286   1.605  0.8924 -0.1684 -0.6541
 2165SOL    HW2 7120   1.565   1.407   1.559 -0.4970 -1.7609 -1.9694
 2166SOL     OW 7121   0.722   1.786   3.626 -0.7133 -1.3039 -0.0109
 2166SOL    HW1 7122   0.653   1.734   3.676  0.6311 -3.2040 -0.0395
 2166SOL    HW2 7123   0.791   1.724   3.589 -1.2956  0.0176 -3.8061
 2167SOL     OW 7124   0.997   0.490   3.901  0.9305 -0.9187  0.2890
 2167SOL    HW1 7125   1.014   0.491   3.999  0.4599 -1.3803  0.3789
 2167SOL    HW2 7126   1.054   0.559   3.856  2.3769 -1.8031  0.6857
 2168SOL     OW 7127   4.038   3.152   0.610  0.5023 -0.1714  0.2966
 2168SOL    HW1 7128   4.094   3.225   0.651 -0.1997  1.1926 -1.0755
 2168SOL    HW2 7129   4.011   3.179   0.518  1.3748 -2.7929 -0.8129
 2169SOL     OW 7130   4.023   2.896   0.272 -0.1942  0.6467 -0.4934
 2169SOL    HW1 7131   4.004   2.884   0.175 -5.5053  3.5657 -0.1750
 2169SOL    HW2 7132   3.972   2.827   0.324  5.3121 -3.2842  0.6025
 2170SOL     OW 7133   1.405   3.073   4.527 -0.4921  0.1076 -0.2592
 2170SOL    HW1 7134   1.345   3.134   4.476 -1.0764 -0.0516  0.2227
 2170SOL    HW2 7135   1.363   3.050   4.615  1.0071  1.3293  0.8386
 2171SOL     OW 7136   2.090   1.350   0.171 -0.1456  0.8245 -0.2694
 2171SOL    HW1 7137   2.155   1.406   0.222 -0.7891  0.6612  0.7505
 2171SOL    HW2 7138   2.044   1.407   0.103 -0.7125  1.5240  0.6814
 2172SOL     OW 7139   3.489   1.085   4.300  0.1127  0.1355 -0.3491
 2172SOL    HW1 7140   3.396   1.082   4.263  0.1920 -1.3398 -0.4797
 2172SOL    HW2 7141   3.553   1.102   4.225  0.0977 -0.8483 -0.6067
 2173SOL     OW 7142   3.907   1.682   1.597 -0.2479 -0.9803  0.1481
 2173SOL    HW1 7143   3.886   1.584   1.596  0.6335 -1.1869 -1.3712
 2173SOL    HW2 7144   3.834   1.731   1.549 -1.6827 -0.6146  2.5548
 2174SOL     OW 7145   1.100   2.878   4.368  0.0783  0.0858 -0.1846
 2174SOL    HW1 7146   1.188   2.856   4.409 -0.7312 -1.5418  0.8163
 2174SOL    HW2 7147   1.111   2.893   4.270  1.0747 -3.3922 -0.7498
 2175SOL     OW 7148   2.782   4.812   0.405 -0.7863  0.0188  0.0967
 2175SOL    HW1 7149   2.814   4.848   0.492 -0.1732 -0.4557  0.0744
 2175SOL    HW2 7150   2.854   4.822   0.336 -1.3653  0.6413 -0.4240
 2176SOL     OW 7151   2.998   1.232   3.767 -0.4406 -0.0497  0.6567
 2176SOL    HW1 7152   3.095   1.221   3.786  0.6426  0.2575 -3.8050
 2176SOL    HW2 7153   2.945   1.169   3.825  2.6226 -2.3342  1.1980
 2177SOL     OW 7154   4.365   2.399   4.243 -0.2435 -0.3242  0.0597
 2177SOL    HW1 7155   4.295   2.409   4.173  0.5705 -0.7877 -0.8538
 2177SOL    HW2 7156   4.455   2.417   4.204  0.0808  1.5842  1.5239
 2178SOL     OW 7157   1.242   1.147   0.076 -0.0479  0.3007 -0.0809
 2178SOL    HW1 7158   1.288   1.111  -0.005  0.7025  2.8034 -0.8673
 2178SOL    HW2 7159   1.192   1.230   0.052 -4.0338 -1.5445  1.0277
 2179SOL     OW 7160   1.701   2.968   1.325 -0.6377  0.0357 -0.6900
 2179SOL    HW1 7161   1.603   2.987   1.323 -1.1841 -2.1930  0.6143
 2179SOL    HW2 7162   1.750   3.035   1.269 -2.6406  2.5857  0.4052
 2180SOL     OW 7163   1.250   1.472   4.849 -0.3268  0.2647 -0.7464
 2180SOL    HW1 7164   1.330   1.418   4.823  0.0519  0.2677  0.3446
 2180SOL    HW2 7165   1.255   1.562   4.804  2.4395  1.8394  2.2340
 2181SOL     OW 7166   1.966   0.740   4.167 -0.0718 -0.5851  0.0213
 2181SOL    HW1 7167   1.997   0.753   4.072 -1.2115  1.1015 -0.1693
 2181SOL    HW2 7168   1.973   0.643   4.191 -3.4528 -1.8759 -3.1701
 2182SOL     OW 7169   0.277   3.426   1.268 -0.5963  0.8971 -1.2848
 2182SOL    HW1 7170   0.228   3.471   1.342  0.3292  2.0863 -1.3699
 2182SOL    HW2 7171   0.375   3.442   1.278 -0.3160 -0.3362 -1.8487
 2183SOL     OW 7172   3.144   1.652   1.770 -0.7212 -0.0727 -0.1366
 2183SOL    HW1 7173   3.081   1.594   1.821 -0.7548  2.0432  2.4576
 2183SOL    HW2 7174   3.176   1.727   1.829  0.2536  1.8696 -2.8959
 2184SOL     OW 7175   1.206   3.678   0.451 -0.4418  0.4959 -0.6409
 2184SOL    HW1 7176   1.128   3.732   0.418 -0.1964  1.1349 -0.1786
 2184SOL    HW2 7177   1.267   3.658   0.374 -0.0707  1.6516 -0.6692
 2185SOL     OW 7178   1.566   0.304   4.509 -0.0690  0.4100 -0.0828
 2185SOL    HW1 7179   1.636   0.284   4.578  3.4117 -1.6744 -3.7606
 2185SOL    HW2 7180   1.586   0.391   4.465 -2.4683  1.9024  1.5348
 2186SOL     OW 7181   4.417   2.065   0.957 -0.7573  0.1350  1.1115
 2186SOL    HW1 7182   4.379   2.066   1.050 -0.7914 -1.1575  1.1353
 2186SOL    HW2 7183   4.498   2.007   0.955  0.7856  2.2053  0.8686
 2187SOL     OW 7184   0.085   3.700   1.685  0.9813 -0.4540 -0.3524
 2187SOL    HW1 7185   0.061   3.622   1.743 -0.6457  1.3400  1.5475
 2187SOL    HW2 7186   0.002   3.736   1.643  1.7623  0.0425 -1.5001
 2188SOL     OW 7187   2.119   4.917   1.526 -0.5744  0.0008  0.2536
 2188SOL    HW1 7188   2.022   4.914   1.502 -0.4145 -1.4719 -0.3004
 2188SOL    HW2 7189   2.138   4.850   1.598  0.3176 -0.9988 -0.8616
 2189SOL     OW 7190   0.337   4.613   0.381  0.0023 -0.2299  0.2290
 2189SOL    HW1 7191   0.400   4.687   0.356  0.5575 -0.7692  0.0010
 2189SOL    HW2 7192   0.390   4.530   0.401 -0.7331 -1.5683 -2.8479
 2190SOL     OW 7193   2.735   0.145   3.058 -0.3899  1.0390 -0.0199
 2190SOL    HW1 7194   2.675   0.202   3.114 -0.9453  1.4241 -0.9808
 2190SOL    HW2 7195   2.784   0.081   3.116  0.4101  2.6289  1.1279
 2191SOL     OW 7196   0.699   4.350   0.793 -0.6912 -0.0073 -0.6439
 2191SOL    HW1 7197   0.798   4.335   0.793 -0.6772  0.0080  0.4380
 2191SOL    HW2 7198   0.651   4.263   0.787 -0.6019 -0.4542  3.1327
 2192SOL     OW 7199   2.445   3.675   2.850  0.2123 -0.4398 -0.3569
 2192SOL    HW1 7200   2.464   3.622   2.933  2.0519  0.7518  0.0449
 2192SOL    HW2 7201   2.351   3.658   2.820 -0.1355 -1.7482  1.3337
 2193SOL     OW 7202   0.577   4.495   4.241  0.4976 -0.4882 -0.5232
 2193SOL    HW1 7203   0.484   4.468   4.263  0.5131  0.1760  0.4051
 2193SOL    HW2 7204   0.634   4.491   4.323  0.8671  0.7613 -0.6902
 2194SOL     OW 7205   2.618   1.116   3.203  0.7349 -0.5446 -0.0554
 2194SOL    HW1 7206   2.703   1.126   3.152  1.3883  4.4238  1.5053
 2194SOL    HW2 7207   2.544   1.162   3.155  0.2354 -0.0522  1.1428
 2195SOL     OW 7208   0.061   2.032   0.090 -0.1638  0.1804  0.3242
 2195SOL    HW1 7209  -0.020   1.986   0.055  0.2635  0.3689 -0.9638
 2195SOL    HW2 7210   0.143   1.981   0.062  0.1705 -0.1740  1.8548
 2196SOL     OW 7211   2.248   0.361   4.980 -0.1608  0.5243  0.5805
 2196SOL    HW1 7212   2.179   0.432   4.990 -0.0583  0.4806  1.6846
 2196SOL    HW2 7213   2.316   0.370   5.053  0.5227  0.0362  0.0179
 2197SOL     OW 7214   2.330   3.017   4.773 -0.0868  0.7992  0.8890
 2197SOL    HW1 7215   2.372   2.939   4.820  0.5097 -0.1349 -1.0841
 2197SOL    HW2 7216   2.400   3.087   4.758  0.6135 -0.2869 -1.4036
 2198SOL     OW 7217   1.824   0.686   2.571 -0.3852  0.8747  0.2627
 2198SOL    HW1 7218   1.817   0.587   2.558  1.1354  1.0983 -3.6401
 2198SOL    HW2 7219   1.899   0.707   2.634 -0.5137 -0.4127  0.8786
 2199SOL     OW 7220   1.982   0.375   1.419  0.3181 -0.6578 -0.5043
 2199SOL    HW1 7221   1.959   0.464   1.460  1.7930 -0.3512 -0.2658
 2199SOL    HW2 7222   2.027   0.318   1.488 -1.8909 -2.1808 -0.2350
 2200SOL     OW 7223   0.997   3.563   4.830  0.1113  0.7111 -0.1255
 2200SOL    HW1 7224   1.003   3.662   4.843 -0.6544  0.7490 -0.0333
 2200SOL    HW2 7225   1.019   3.517   4.917 -3.4292  0.9286  1.0307
 2201SOL     OW 7226   0.257   3.402   4.731 -0.5006 -0.1958  0.9121
 2201SOL    HW1 7227   0.355   3.391   4.744 -0.5346 -0.7787  0.6709
 2201SOL    HW2 7228   0.209   3.382   4.817 -0.4750 -0.8106  0.7868
 2202SOL     OW 7229   1.342   4.728   2.605 -0.1730  0.5998  0.3514
 2202SOL    HW1 7230   1.291   4.731   2.519 -0.4709 -0.9483  0.4487
 2202SOL    HW2 7231   1.305   4.656   2.663  1.4133  0.1936  0.8941
 2203SOL     OW 7232   4.390   4.614   0.707  0.1604  0.3401  0.9091
 2203SOL    HW1 7233   4.402   4.701   0.753 -0.0293  0.7472  0.2095
 2203SOL    HW2 7234   4.410   4.539   0.770 -1.4774  0.8351  2.0847
 2204SOL     OW 7235   0.622   3.022   4.438  0.7043  0.7180  0.2755
 2204SOL    HW1 7236   0.619   3.097   4.371 -0.5970 -0.4432 -1.0291
 2204SOL    HW2 7237   0.713   3.017   4.478  0.7955  3.0804  0.5174
 2205SOL     OW 7238   2.418   2.380   3.202  0.6507  0.0041 -0.2464
 2205SOL    HW1 7239   2.319   2.396   3.204  0.7658  0.7022  0.1087
 2205SOL    HW2 7240   2.463   2.455   3.153  1.1355  0.3958  0.7826
 2206SOL     OW 7241   2.327   3.574   3.193 -0.2089  0.2902 -0.1057
 2206SOL    HW1 7242   2.335   3.520   3.277 -0.4860 -2.2290 -1.5815
 2206SOL    HW2 7243   2.413   3.571   3.143  0.1557  2.3014  0.3259
 2207SOL     OW 7244   3.347   4.700   3.695 -0.2147  0.1245 -0.9982
 2207SOL    HW1 7245   3.442   4.730   3.695 -0.4530  1.0989 -3.4650
 2207SOL    HW2 7246   3.337   4.621   3.755  2.5217 -1.0806 -1.9847
 2208SOL     OW 7247   0.714   0.627   1.989  0.3293  0.8795  0.2172
 2208SOL    HW1 7248   0.769   0.709   2.006 -0.6077  1.7205 -0.6480
 2208SOL    HW2 7249   0.702   0.614   1.891  0.4937 -0.3252  0.3506
 2209SOL     OW 7250   3.300   0.036   0.493 -0.0449 -0.6690 -1.0119
 2209SOL    HW1 7251   3.257  -0.022   0.424 -2.6873 -2.3156  1.7833
 2209SOL    HW2 7252   3.318  -0.018   0.576  3.2630  1.1254 -0.3707
 2210SOL     OW 7253   4.861   1.595   0.764  0.3977  0.7059  0.0606
 2210SOL    HW1 7254   4.934   1.546   0.716  0.1654 -0.1507  0.5416
 2210SOL    HW2 7255   4.869   1.578   0.863  2.1699  4.1485  0.6571
 2211SOL     OW 7256   2.904   1.762   3.557 -0.1427 -0.1567 -0.2763
 2211SOL    HW1 7257   2.919   1.703   3.478  0.3081  1.0273 -1.0962
 2211SOL    HW2 7258   2.817   1.810   3.546 -0.1482 -0.1000  0.0155
 2212SOL     OW 7259   0.259   3.349   0.411  0.1579  0.2385 -0.4501
 2212SOL    HW1 7260   0.330   3.414   0.438 -1.1524  2.7475 -2.6872
 2212SOL    HW2 7261   0.295   3.289   0.339  0.9185 -0.6098  0.6052
 2213SOL     OW 7262   4.621   1.739   2.588  1.0448  0.4503 -0.5839
 2213SOL    HW1 7263   4.654   1.690   2.668 -3.1135 -1.4009  0.2641
 2213SOL    HW2 7264   4.617   1.678   2.509  1.3593  1.1512 -1.1643
 2214SOL     OW 7265   3.834   1.842   0.349  0.3285 -0.2503  0.4073
 2214SOL    HW1 7266   3.871   1.907   0.282  3.2520 -0.7525  1.4162
 2214SOL    HW2 7267   3.865   1.749   0.325  2.6082 -0.2942  3.0703
 2215SOL     OW 7268   2.178   4.800   3.876  0.0156  0.4215 -0.5475
 2215SOL    HW1 7269   2.079   4.794   3.859  0.1382 -2.1031 -0.6749
 2215SOL    HW2 7270   2.216   4.708   3.886  2.0758  1.3848  1.3143
 2216SOL     OW 7271   4.520   1.999   2.601 -0.7183 -0.2107  0.4536
 2216SOL    HW1 7272   4.435   2.013   2.549  0.5649  0.3211 -1.6409
 2216SOL    HW2 7273   4.533   1.902   2.618  0.0463 -0.7758 -2.6479
 2217SOL     OW 7274   2.696   0.094   0.846  0.1577 -0.3800 -0.4798
 2217SOL    HW1 7275   2.646   0.119   0.762  0.7095 -1.4523 -1.1549
 2217SOL    HW2 7276   2.747   0.173   0.879 -1.4498  0.5625 -0.1338
 2218SOL     OW 7277   4.371   3.182   4.472 -0.1837  0.4291 -0.6520
 2218SOL    HW1 7278   4.400   3.277   4.478  0.9629  0.0222  1.0057
 2218SOL    HW2 7279   4.412   3.129   4.547 -4.2595 -0.4686  1.2955
 2219SOL     OW 7280   3.711   3.733   4.443 -0.8463 -0.2409 -0.2791
 2219SOL    HW1 7281   3.723   3.703   4.348  3.7642 -3.9469  1.0676
 2219SOL    HW2 7282   3.779   3.804   4.464  0.0711 -1.4248  0.8660
 2220SOL     OW 7283   3.761   2.977   2.732 -0.1088 -0.1365 -0.4838
 2220SOL    HW1 7284   3.772   3.022   2.643  2.1153 -0.5974 -0.4794
 2220SOL    HW2 7285   3.699   2.899   2.722 -1.8852  1.2746 -1.0482
 2221SOL     OW 7286   0.881   1.548   0.124  0.3449  0.1530  0.2604
 2221SOL    HW1 7287   0.816   1.564   0.198  0.5430  1.8235  0.1091
 2221SOL    HW2 7288   0.961   1.501   0.160 -0.4516 -0.9371  0.6661
 2222SOL     OW 7289   0.215   3.175   1.615 -0.3250  0.4117  1.0139
 2222SOL    HW1 7290   0.241   3.211   1.704  0.3458  1.3170  0.4738
 2222SOL    HW2 7291   0.223   3.248   1.546  0.6528 -0.6531 -0.0393
 2223SOL     OW 7292   1.107   2.414   3.114  0.4759 -1.0077 -0.6259
 2223SOL    HW1 7293   1.014   2.409   3.077  0.4237  0.3280 -0.6999
 2223SOL    HW2 7294   1.131   2.509   3.133  2.0796 -1.2614 -1.2252
 2224SOL     OW 7295   3.952   1.304   3.203  0.2347  0.0153  0.7403
 2224SOL    HW1 7296   3.999   1.244   3.138  0.3875  0.9596 -0.0560
 2224SOL    HW2 7297   3.926   1.389   3.157  0.5454  0.8127  1.9817
 2225SOL     OW 7298   0.468   2.328   1.001  0.0712 -0.8900 -0.0303
 2225SOL    HW1 7299   0.446   2.344   0.905  0.8669 -1.9116 -0.4061
 2225SOL    HW2 7300   0.554   2.277   1.007  0.0911 -0.7295  1.2314
 2226SOL     OW 7301   4.872   3.387   0.023 -0.3602  0.7671 -0.8118
 2226SOL    HW1 7302   4.970   3.368   0.023 -0.4376 -0.0377 -3.5913
 2226SOL    HW2 7303   4.857   3.486   0.017  0.2595  0.9060 -0.1635
 2227SOL     OW 7304   4.550   1.607   3.114 -0.1025 -0.5002  0.0110
 2227SOL    HW1 7305   4.470   1.666   3.119  0.2961  0.1525 -0.9626
 2227SOL    HW2 7306   4.589   1.611   3.022  2.6481  1.3262  1.1355
 2228SOL     OW 7307   3.881   0.836   3.463  0.4450 -0.3281 -0.1119
 2228SOL    HW1 7308   3.980   0.823   3.461  0.5637  0.5656 -0.4884
 2228SOL    HW2 7309   3.835   0.749   3.440  1.1254 -0.8396  0.4342
 2229SOL     OW 7310   4.436   2.656   3.214 -0.8093  0.5905 -0.5613
 2229SOL    HW1 7311   4.449   2.734   3.153 -0.6844 -0.4047 -1.8537
 2229SOL    HW2 7312   4.464   2.572   3.167 -2.5850 -0.4597  0.1618
 2230SOL     OW 7313   2.722   3.721   0.566  0.2787  0.3163 -0.3055
 2230SOL    HW1 7314   2.730   3.792   0.635  2.6402 -0.1820  0.0055
 2230SOL    HW2 7315   2.690   3.762   0.480  2.2203  1.9203 -0.3339
 2231SOL     OW 7316   0.371   1.178   2.942  0.0655  0.6168 -0.4815
 2231SOL    HW1 7317   0.310   1.155   2.866  1.8065 -0.2680 -1.6835
 2231SOL    HW2 7318   0.382   1.277   2.948 -2.4873  0.9084  0.6403
 2232SOL     OW 7319   3.377   0.092   0.109 -0.0598 -0.0881  0.3674
 2232SOL    HW1 7320   3.378   0.086   0.209  3.1008 -0.0025  0.4588
 2232SOL    HW2 7321   3.422   0.012   0.070  1.1778  1.0855 -0.7751
 2233SOL     OW 7322   3.844   4.886   3.123  0.8718  0.5139 -0.1789
 2233SOL    HW1 7323   3.875   4.851   3.211  0.9538  1.8426  0.3455
 2233SOL    HW2 7324   3.770   4.951   3.137  1.7741  1.7720 -0.9466
 2234SOL     OW 7325   1.280   2.823   1.926  0.1507 -0.8849  0.3369
 2234SOL    HW1 7326   1.272   2.919   1.953  5.8133  0.0292 -0.0657
 2234SOL    HW2 7327   1.322   2.771   2.000 -0.6299 -2.5505 -0.3380
 2235SOL     OW 7328   3.272   1.077   4.164 -0.5450 -0.0716  0.6549
 2235SOL    HW1 7329   3.185   1.124   4.151 -0.3145 -0.3753 -3.3941
 2235SOL    HW2 7330   3.259   0.979   4.148  0.7419  0.1144 -2.1009
 2236SOL     OW 7331   2.554   3.241   0.533  0.1563  0.0188 -0.4862
 2236SOL    HW1 7332   2.591   3.292   0.611 -2.1033 -1.9407  2.0528
 2236SOL    HW2 7333   2.538   3.146   0.560  1.7476 -1.5301 -4.2268
 2237SOL     OW 7334   1.637   3.391   4.667  0.5002  0.2638 -0.6178
 2237SOL    HW1 7335   1.650   3.295   4.642  1.8769 -0.0235  0.9884
 2237SOL    HW2 7336   1.680   3.449   4.598  1.9278 -0.4033 -0.3416
 2238SOL     OW 7337   2.310   4.669   1.866  1.0018  0.9968  0.6539
 2238SOL    HW1 7338   2.222   4.667   1.817  1.4184  2.2466 -0.2102
 2238SOL    HW2 7339   2.306   4.738   1.938  0.7289 -0.1449  1.7657
 2239SOL     OW 7340   3.431   4.194   1.865 -0.1854 -0.0925 -0.6432
 2239SOL    HW1 7341   3.484   4.230   1.941 -0.8561  0.0740 -0.2512
 2239SOL    HW2 7342   3.377   4.116   1.895 -1.4296  0.7578 -0.6255
 2240SOL     OW 7343   4.956   3.795   0.562  0.5766  0.1593 -0.1690
 2240SOL    HW1 7344   4.939   3.704   0.523  1.4089 -0.5202  0.9625
 2240SOL    HW2 7345   5.054   3.813   0.562  0.5662  0.3273  1.1095
 2241SOL     OW 7346   1.134   3.390   1.423 -0.4104 -0.0564  0.9020
 2241SOL    HW1 7347   1.174   3.343   1.501 -0.7129  0.5612  1.4375
 2241SOL    HW2 7348   1.204   3.408   1.354 -0.0678 -0.2668  1.1951
 2242SOL     OW 7349   3.108   3.721   4.644  0.2900 -0.1639 -0.0097
 2242SOL    HW1 7350   3.153   3.796   4.596  0.3278  2.5177  3.7849
 2242SOL    HW2 7351   3.175   3.650   4.666  0.6005 -0.6237 -2.1947
 2243SOL     OW 7352   3.461   2.310   4.330 -0.3604  0.3247  0.7098
 2243SOL    HW1 7353   3.395   2.311   4.405  1.0090 -1.2747  2.0009
 2243SOL    HW2 7354   3.435   2.240   4.264  0.2182 -0.5495  1.3987
 2244SOL     OW 7355   2.100   0.150   4.332  0.5934 -0.8140  0.4539
 2244SOL    HW1 7356   2.131   0.070   4.280  1.3180  0.8834 -1.9059
 2244SOL    HW2 7357   2.002   0.144   4.349  0.2477 -1.3059 -1.4915
 2245SOL     OW 7358   2.669   2.866   2.244  0.3768 -0.3718  0.8824
 2245SOL    HW1 7359   2.702   2.944   2.298  1.5435 -1.0089  1.1255
 2245SOL    HW2 7360   2.730   2.788   2.259 -0.2372 -1.0463 -0.0876
 2246SOL     OW 7361   0.588   0.625   4.173  0.2557 -0.3292 -0.8337
 2246SOL    HW1 7362   0.619   0.592   4.084 -0.3202 -0.6102 -0.9402
 2246SOL    HW2 7363   0.515   0.692   4.159  0.9420  0.4818 -0.5999
 2247SOL     OW 7364   3.408   2.508   3.072 -0.1764 -0.7960  0.3115
 2247SOL    HW1 7365   3.506   2.502   3.050 -0.1714 -0.5315  0.2674
 2247SOL    HW2 7366   3.363   2.423   3.043 -0.3178 -0.1407 -1.4797
 2248SOL     OW 7367   3.104   1.495   2.685  0.8669  0.3326 -0.3716
 2248SOL    HW1 7368   3.145   1.524   2.599  1.7828 -0.0588 -0.0736
 2248SOL    HW2 7369   3.017   1.448   2.666  0.8092  0.7004 -1.0400
 2249SOL     OW 7370   1.702   0.605   3.335  0.0272  0.5281 -0.0155
 2249SOL    HW1 7371   1.741   0.514   3.352  0.8905  0.6424 -1.2362
 2249SOL    HW2 7372   1.745   0.672   3.394  0.0163  0.2825  0.2701
 2250SOL     OW 7373   0.116   4.317   4.650 -0.2965  0.0329  0.4525
 2250SOL    HW1 7374   0.132   4.231   4.699  0.6924  0.2156  0.4692
 2250SOL    HW2 7375   0.202   4.351   4.613 -1.0296 -0.2710 -1.7130
 2251SOL     OW 7376   1.503   3.448   3.152  0.1458  0.2149 -0.1017
 2251SOL    HW1 7377   1.453   3.362   3.158  1.9131 -1.2040 -3.2557
 2251SOL    HW2 7378   1.452   3.512   3.095  1.1415 -0.7178 -2.1278
 2252SOL     OW 7379   0.965   2.261   3.838 -1.0700 -0.0239  0.3868
 2252SOL    HW1 7380   1.025   2.231   3.912  0.2841 -0.7607 -0.9649
 2252SOL    HW2 7381   0.968   2.194   3.763 -1.5915  1.2225 -0.7859
 2253SOL     OW 7382   2.477   0.614   3.782  0.1266 -0.8400 -0.9035
 2253SOL    HW1 7383   2.562   0.570   3.752  1.4034 -1.0358  2.5089
 2253SOL    HW2 7384   2.420   0.547   3.830  0.7679  0.4160  1.8330
 2254SOL     OW 7385   4.988   3.188   2.088 -0.6295 -0.1239 -0.1359
 2254SOL    HW1 7386   4.987   3.137   2.001 -2.8006  0.2949 -0.4137
 2254SOL    HW2 7387   5.059   3.259   2.084  1.3614 -2.0203 -0.3499
 2255SOL     OW 7388   3.817   3.692   3.704 -0.3031 -0.1054 -0.3908
 2255SOL    HW1 7389   3.799   3.761   3.634 -0.4624  0.5125  0.2581
 2255SOL    HW2 7390   3.738   3.684   3.764 -0.2120 -0.7209 -0.3408
 2256SOL     OW 7391   0.272   3.480   3.989  0.1585  0.3887 -0.0393
 2256SOL    HW1 7392   0.200   3.429   3.942  0.5172 -0.6386  0.5028
 2256SOL    HW2 7393   0.234   3.565   4.026 -0.8434 -0.2834  0.5125
 2257SOL     OW 7394   4.231   3.443   1.973 -0.0063  1.0538  0.2179
 2257SOL    HW1 7395   4.265   3.349   1.979 -1.6232  0.4411  0.3538
 2257SOL    HW2 7396   4.219   3.468   1.877  3.2463  2.2601 -0.0042
 2258SOL     OW 7397   0.060   1.099   0.429  0.5129 -0.1883 -0.5537
 2258SOL    HW1 7398   0.102   1.013   0.401  0.9694  0.5363 -2.2979
 2258SOL    HW2 7399   0.090   1.172   0.366  0.8666  1.4319  1.3964
 2259SOL     OW 7400   2.719   4.618   0.096  0.2127 -0.4923  1.1488
 2259SOL    HW1 7401   2.767   4.689   0.148  1.9198 -1.2364  0.6653
 2259SOL    HW2 7402   2.766   4.603   0.009 -1.6420 -0.4130  0.0838
 2260SOL     OW 7403   4.859   1.393   3.234 -0.3230  0.8020 -0.6671
 2260SOL    HW1 7404   4.765   1.359   3.229  0.0555 -1.4718  3.2066
 2260SOL    HW2 7405   4.858   1.491   3.255 -2.1006  0.1810  2.8377
 2261SOL     OW 7406   1.812   0.667   1.132  0.5421 -0.6643 -0.0524
 2261SOL    HW1 7407   1.874   0.589   1.127  0.9071 -0.6781  3.0523
 2261SOL    HW2 7408   1.859   0.749   1.098  2.1268 -0.7980  1.6862
 2262SOL     OW 7409   0.061   2.771   3.556 -0.6179  0.5662  0.5191
 2262SOL    HW1 7410   0.063   2.672   3.575 -1.6496  0.5183  0.4358
 2262SOL    HW2 7411  -0.033   2.799   3.537 -0.2755  1.5024  0.1680
 2263SOL     OW 7412   1.659   0.780   0.669 -0.1357 -0.1007 -0.6063
 2263SOL    HW1 7413   1.711   0.821   0.594  1.1561 -0.9847 -0.2230
 2263SOL    HW2 7414   1.705   0.799   0.756 -0.7667 -0.4260 -0.1929
 2264SOL     OW 7415   2.430   4.626   0.995 -0.3984 -0.4074  0.0756
 2264SOL    HW1 7416   2.440   4.586   1.087  1.1545 -2.4001 -0.8907
 2264SOL    HW2 7417   2.476   4.715   0.993 -2.0815  0.5810  1.6949
 2265SOL     OW 7418   1.039   3.586   1.672  0.6982  1.0037  0.4309
 2265SOL    HW1 7419   0.973   3.526   1.627  2.0001 -0.2665  0.0917
 2265SOL    HW2 7420   1.101   3.624   1.604  2.1474 -0.2409  0.9724
 2266SOL     OW 7421   2.397   2.514   1.559 -0.0833 -0.4922 -0.5116
 2266SOL    HW1 7422   2.321   2.567   1.596  0.4733  0.1345 -0.2456
 2266SOL    HW2 7423   2.383   2.417   1.582 -0.0612 -0.1996  0.8357
 2267SOL     OW 7424   4.389   0.320   2.637  0.0451  1.4778 -0.3109
 2267SOL    HW1 7425   4.468   0.373   2.604  0.6167  0.8257 -0.0147
 2267SOL    HW2 7426   4.305   0.357   2.597  0.5095  2.1008 -0.7353
 2268SOL     OW 7427   2.689   3.709   2.737  0.5391 -0.6293 -0.0829
 2268SOL    HW1 7428   2.730   3.681   2.824  1.0560  1.2688  0.3343
 2268SOL    HW2 7429   2.590   3.713   2.746  0.5163 -1.4019  0.0981
 2269SOL     OW 7430   3.605   2.110   4.867  0.1041  0.7896  0.0259
 2269SOL    HW1 7431   3.566   2.172   4.799  2.0524  2.0117 -0.0442
 2269SOL    HW2 7432   3.627   2.162   4.950 -0.7474 -0.3721  1.0115
 2270SOL     OW 7433   0.130   1.661   3.387  0.1120  0.6892 -0.0559
 2270SOL    HW1 7434   0.131   1.639   3.485 -1.9281  2.5072  0.4590
 2270SOL    HW2 7435   0.223   1.656   3.351  0.9784  0.3359  2.0555
 2271SOL     OW 7436   4.651   2.196   4.861 -0.5857  0.0485  0.3139
 2271SOL    HW1 7437   4.602   2.273   4.819  0.8203  1.5480  1.3020
 2271SOL    HW2 7438   4.585   2.130   4.897 -1.8693  1.7032  1.1047
 2272SOL     OW 7439   2.141   1.580   1.576  0.1017 -0.1505  0.0409
 2272SOL    HW1 7440   2.171   1.519   1.503  0.2659  2.1281 -1.9281
 2272SOL    HW2 7441   2.041   1.588   1.574  0.0451 -0.6513  0.5785
 2273SOL     OW 7442   0.717   1.972   0.936  0.0432 -0.2952  0.0806
 2273SOL    HW1 7443   0.726   1.878   0.905  0.3364 -0.2794  0.1110
 2273SOL    HW2 7444   0.798   1.997   0.990  0.2124  0.1362 -0.3573
 2274SOL     OW 7445   4.686   4.748   0.503 -0.1595  0.5035 -1.3211
 2274SOL    HW1 7446   4.650   4.661   0.468 -1.4137  0.6145 -0.3922
 2274SOL    HW2 7447   4.611   4.814   0.509  0.5800  1.3272 -1.0474
 2275SOL     OW 7448   3.972   2.272   1.665 -0.3722 -0.0851  0.5093
 2275SOL    HW1 7449   4.001   2.187   1.709 -0.4131 -1.3192 -1.6951
 2275SOL    HW2 7450   3.950   2.254   1.569  0.3698  2.5728 -0.2449
 2276SOL     OW 7451   4.940   3.645   4.925 -0.0648 -0.1223 -0.4091
 2276SOL    HW1 7452   5.001   3.677   4.853  0.1644  1.4767  0.4516
 2276SOL    HW2 7453   4.929   3.717   4.994 -1.8601 -0.8674  0.1390
 2277SOL     OW 7454   2.207   3.913   3.485 -0.6181 -0.0867  0.3440
 2277SOL    HW1 7455   2.112   3.907   3.454  0.1668 -1.3215 -2.1113
 2277SOL    HW2 7456   2.256   3.980   3.428  0.6593 -1.6670 -0.4937
 2278SOL     OW 7457   2.569   1.935   3.687 -1.1970  0.0774 -0.2879
 2278SOL    HW1 7458   2.602   1.907   3.597  2.6904  0.9123  0.6629
 2278SOL    HW2 7459   2.543   2.032   3.684 -0.7554  0.1933 -0.4578
 2279SOL     OW 7460   4.044   4.331   3.002  0.0358 -0.3964 -0.0987
 2279SOL    HW1 7461   4.056   4.243   2.957  2.8895  0.6682 -1.6726
 2279SOL    HW2 7462   3.947   4.346   3.020 -0.4501 -4.3696  1.5045
 2280SOL     OW 7463   1.209   4.922   1.617 -0.1069 -0.4130  0.6547
 2280SOL    HW1 7464   1.198   4.849   1.550  0.4537  0.3630 -0.3234
 2280SOL    HW2 7465   1.174   5.008   1.579  2.2532  0.5247  0.4127
 2281SOL     OW 7466   1.271   3.619   2.487  0.2246  0.0369 -0.3919
 2281SOL    HW1 7467   1.246   3.526   2.513 -2.7341  0.1942 -2.1683
 2281SOL    HW2 7468   1.360   3.618   2.440 -0.5980 -2.2637 -2.1174
 2282SOL     OW 7469   1.315   3.555   0.688 -0.1578  1.0212  0.2057
 2282SOL    HW1 7470   1.387   3.594   0.746 -3.3189  2.5213  3.4789
 2282SOL    HW2 7471   1.263   3.628   0.644 -1.5866  0.1573  0.3968
 2283SOL     OW 7472   2.966   2.909   0.966 -0.5200  0.4323 -0.0855
 2283SOL    HW1 7473   3.018   2.862   1.037  0.8390  1.1997 -0.5274
 2283SOL    HW2 7474   3.012   2.995   0.943 -2.0651  1.2031 -0.4235
 2284SOL     OW 7475   2.734   1.542   4.218  0.1982 -0.0577 -0.6709
 2284SOL    HW1 7476   2.709   1.632   4.255 -1.1189 -0.1242 -1.3141
 2284SOL    HW2 7477   2.786   1.491   4.286 -1.7784 -0.0219  0.9499
 2285SOL     OW 7478   1.883   1.219   1.064 -0.8014 -0.4400  0.0239
 2285SOL    HW1 7479   1.940   1.235   0.983 -0.4551  0.6331  0.4556
 2285SOL    HW2 7480   1.893   1.296   1.127 -1.6865 -0.8849  0.7311
 2286SOL     OW 7481   1.750   0.468   0.839  0.2988 -0.1299 -0.2494
 2286SOL    HW1 7482   1.783   0.544   0.782 -1.1637 -0.3955 -1.5058
 2286SOL    HW2 7483   1.678   0.501   0.900  2.2142  0.2743  1.9309
 2287SOL     OW 7484   2.498   2.466   1.925  0.1260 -0.1794 -0.1423
 2287SOL    HW1 7485   2.459   2.374   1.914  0.2976 -0.1148 -1.4808
 2287SOL    HW2 7486   2.460   2.526   1.854 -0.2094  0.8700  0.9036
 2288SOL     OW 7487   3.617   0.789   0.682 -0.0462 -0.1773  0.2059
 2288SOL    HW1 7488   3.536   0.741   0.716  0.5797 -0.8759  0.7542
 2288SOL    HW2 7489   3.603   0.816   0.587 -0.2993 -1.7614 -0.2409
 2289SOL     OW 7490   3.395   1.904   4.562 -0.6996 -0.1661 -0.5416
 2289SOL    HW1 7491   3.329   1.953   4.620  1.6152  2.0950  0.3462
 2289SOL    HW2 7492   3.427   1.965   4.490  0.3227 -1.2572 -1.0337
 2290SOL     OW 7493   2.673   1.065   1.591 -0.0165  0.6980  0.3074
 2290SOL    HW1 7494   2.596   1.124   1.569 -1.8169 -1.3205  0.8961
 2290SOL    HW2 7495   2.691   1.003   1.515 -0.7776 -0.6475  1.1869
 2291SOL     OW 7496   2.587   0.324   3.231 -0.2540 -0.4544  0.0771
 2291SOL    HW1 7497   2.610   0.414   3.194  2.4022 -1.1101 -0.0477
 2291SOL    HW2 7498   2.573   0.331   3.330  1.0167 -0.0433  0.2498
 2292SOL     OW 7499   2.584   2.090   4.940 -0.9782  0.9439  0.3984
 2292SOL    HW1 7500   2.654   2.142   4.892  0.3017 -3.4331 -3.2049
 2292SOL    HW2 7501   2.622   2.053   5.025  0.6917 -0.0252 -0.7040
 2293SOL     OW 7502   2.556   4.300   3.950  0.0811 -0.4964  0.3051
 2293SOL    HW1 7503   2.508   4.329   4.033  0.7431 -1.2075  0.9599
 2293SOL    HW2 7504   2.498   4.315   3.871 -0.7686 -0.2752  0.9544
 2294SOL     OW 7505   4.485   0.420   4.353 -0.1632  0.1418  0.3077
 2294SOL    HW1 7506   4.500   0.467   4.440  2.2364 -0.5408  0.3325
 2294SOL    HW2 7507   4.415   0.350   4.364 -1.6576  1.6922  1.0198
 2295SOL     OW 7508   3.774   2.485   2.366 -0.1589 -0.2461 -0.3322
 2295SOL    HW1 7509   3.779   2.573   2.321 -0.6572  0.8797  1.6645
 2295SOL    HW2 7510   3.678   2.460   2.380 -0.0466 -0.0709  0.9195
 2296SOL     OW 7511   1.792   1.091   2.348  0.6483  0.2662 -0.4359
 2296SOL    HW1 7512   1.879   1.140   2.356  0.3552  1.0450 -1.6383
 2296SOL    HW2 7513   1.731   1.119   2.421  1.3091 -0.0979  0.2713
 2297SOL     OW 7514   0.220   3.900   2.022 -0.0514 -0.2245  0.9396
 2297SOL    HW1 7515   0.134   3.857   2.050  0.0195 -0.2238  1.1605
 2297SOL    HW2 7516   0.297   3.843   2.052  0.2113  1.5602  4.1017
 2298SOL     OW 7517   1.215   1.423   1.022  0.1832  0.0527 -0.7297
 2298SOL    HW1 7518   1.140   1.370   0.980  0.1888 -1.8565  1.4525
 2298SOL    HW2 7519   1.274   1.361   1.074  1.6984  1.9272 -0.1076
 2299SOL     OW 7520   1.051   1.850   2.491  0.0004 -0.9446  0.7893
 2299SOL    HW1 7521   1.101   1.852   2.405 -1.0745 -1.6198  0.1194
 2299SOL    HW2 7522   0.984   1.924   2.493  1.2366  0.1959  1.8423
 2300SOL     OW 7523   1.497   2.176   3.371 -0.0223  0.8140  0.5630
 2300SOL    HW1 7524   1.473   2.223   3.286 -1.4092  2.1847  1.6569
 2300SOL    HW2 7525   1.574   2.222   3.415  1.2509 -0.3947 -0.3118
 2301SOL     OW 7526   3.792   1.710   2.250  0.0581  1.1237 -0.3051
 2301SOL    HW1 7527   3.766   1.782   2.314 -0.5235  0.0715  0.6859
 2301SOL    HW2 7528   3.787   1.621   2.296  2.6568  0.5788 -0.9153
 2302SOL     OW 7529   0.001   3.749   1.296  0.4556  0.7447 -0.3096
 2302SOL    HW1 7530   0.006   3.650   1.287 -0.2719  0.5229  1.2601
 2302SOL    HW2 7531  -0.029   3.789   1.209 -2.1635 -0.7124 -0.1913
 2303SOL     OW 7532   3.103   1.666   3.888 -0.2105 -0.3431  0.3271
 2303SOL    HW1 7533   3.022   1.657   3.830  1.4211 -1.2871 -1.9648
 2303SOL    HW2 7534   3.083   1.728   3.964 -2.3654  1.2734 -1.4277
 2304SOL     OW 7535   3.640   0.231   3.916  0.5431 -0.4944  0.4540
 2304SOL    HW1 7536   3.660   0.196   3.824 -0.3987  3.0170 -1.2833
 2304SOL    HW2 7537   3.542   0.247   3.925  0.8387  1.0399  1.2837
 2305SOL     OW 7538   4.431   4.247   2.289  0.6049  0.5002  0.0763
 2305SOL    HW1 7539   4.475   4.220   2.374 -3.9240  0.8914  2.8518
 2305SOL    HW2 7540   4.465   4.337   2.261  3.9386 -0.6566 -0.1188
 2306SOL     OW 7541   3.047   2.598   4.440 -0.3600  0.8334 -0.0296
 2306SOL    HW1 7542   2.997   2.646   4.512 -0.3755  2.7111 -1.2118
 2306SOL    HW2 7543   3.130   2.557   4.478 -1.5480 -0.2754  1.4879
 2307SOL     OW 7544   2.979   2.858   4.963  0.0712 -0.0704 -0.2050
 2307SOL    HW1 7545   2.983   2.957   4.948 -6.3429  0.5433 -0.6604
 2307SOL    HW2 7546   2.976   2.811   4.875  2.4502 -0.7156  0.0106
 2308SOL     OW 7547   0.581   3.109   3.325  0.2677 -0.0223  0.3253
 2308SOL    HW1 7548   0.565   3.155   3.237 -0.3780 -1.0209 -0.0976
 2308SOL    HW2 7549   0.501   3.054   3.349  1.1293 -1.1836  0.6531
 2309SOL     OW 7550   4.657   3.536   1.126 -0.5399 -0.1330 -0.9094
 2309SOL    HW1 7551   4.564   3.524   1.162 -1.0379 -2.2818 -2.6710
 2309SOL    HW2 7552   4.659   3.615   1.064 -1.0885  0.1676 -0.5535
 2310SOL     OW 7553   0.190   3.743   0.912  0.6716 -0.0652  0.0372
 2310SOL    HW1 7554   0.143   3.831   0.919 -1.8476 -1.3569  0.6722
 2310SOL    HW2 7555   0.195   3.715   0.816 -4.5119 -2.0325  0.0082
 2311SOL     OW 7556   3.429   1.345   4.250 -0.3582 -0.8476 -0.0514
 2311SOL    HW1 7557   3.445   1.247   4.260 -0.5226 -0.7894  0.8485
 2311SOL    HW2 7558   3.414   1.386   4.340  1.3126  0.2852 -0.2478
 2312SOL     OW 7559   4.994   3.015   1.835  0.2938  0.3125 -0.4374
 2312SOL    HW1 7560   4.997   3.009   1.736  0.8415  2.0594 -0.5612
 2312SOL    HW2 7561   5.000   2.924   1.875 -1.4334 -0.5419 -2.0078
 2313SOL     OW 7562   4.270   0.964   1.008  0.1915  0.6237  1.8470
 2313SOL    HW1 7563   4.188   1.014   0.983  2.1649  2.8662 -0.7714
 2313SOL    HW2 7564   4.297   0.905   0.932  1.9782  1.3714  1.8558
 2314SOL     OW 7565   4.974   1.140   3.137  0.1160  0.9062 -0.3114
 2314SOL    HW1 7566   4.922   1.221   3.165  1.0651  1.5058 -0.2257
 2314SOL    HW2 7567   5.062   1.169   3.099  0.7848 -0.1143  0.4117
 2315SOL     OW 7568   4.045   3.012   1.202 -0.0237 -0.2894 -0.8246
 2315SOL    HW1 7569   3.973   3.005   1.133  0.6615  3.3999 -2.1433
 2315SOL    HW2 7570   4.130   3.042   1.160  1.1662 -0.4935  1.2771
 2316SOL     OW 7571   4.256   0.852   4.643 -0.3900  0.2999  0.1797
 2316SOL    HW1 7572   4.224   0.841   4.549  0.7801 -2.6480  0.0203
 2316SOL    HW2 7573   4.356   0.860   4.643 -0.5315  3.7131  1.0485
 2317SOL     OW 7574   1.780   0.425   2.606 -0.1047 -0.1187 -0.4300
 2317SOL    HW1 7575   1.770   0.329   2.583  0.4934 -0.6784  1.4905
 2317SOL    HW2 7576   1.764   0.438   2.704  1.1789  1.5106 -0.3874
 2318SOL     OW 7577   1.962   3.093   3.636  0.4459  0.0495 -0.3583
 2318SOL    HW1 7578   1.903   3.038   3.577 -0.2048 -1.2428  1.4111
 2318SOL    HW2 7579   1.961   3.055   3.729  3.0790  0.7537  0.0313
 2319SOL     OW 7580   3.779   0.578   0.343 -0.1168  0.1465  0.2894
 2319SOL    HW1 7581   3.813   0.531   0.262  0.1772 -3.7885  2.4557
 2319SOL    HW2 7582   3.679   0.582   0.340 -0.1690 -0.9478  0.1635
 2320SOL     OW 7583   2.251   1.681   2.419  0.0878  0.3573  0.3802
 2320SOL    HW1 7584   2.231   1.675   2.322 -0.4411 -0.0336  0.5096
 2320SOL    HW2 7585   2.202   1.759   2.459  0.0627  0.3377  0.3882
 2321SOL     OW 7586   1.538   0.520   3.756 -0.7739  0.1803 -0.4260
 2321SOL    HW1 7587   1.502   0.589   3.818 -0.0895 -3.0602  4.1331
 2321SOL    HW2 7588   1.465   0.457   3.729 -0.8481  0.9473 -2.1155
 2322SOL     OW 7589   1.401   3.797   3.255  0.1493 -1.2953  0.3439
 2322SOL    HW1 7590   1.470   3.864   3.281 -1.6986  0.2852  1.4210
 2322SOL    HW2 7591   1.365   3.820   3.164 -0.6072 -0.6792  0.7864
 2323SOL     OW 7592   3.444   4.892   0.286  0.6882  0.0601  0.2884
 2323SOL    HW1 7593   3.485   4.855   0.203 -0.6630 -1.2024  0.1473
 2323SOL    HW2 7594   3.508   4.882   0.362  1.4874  0.1692 -0.3540
 2324SOL     OW 7595   1.876   2.242   4.073 -0.4955  0.3215  0.7405
 2324SOL    HW1 7596   1.831   2.168   4.023 -3.7596  2.1011  0.7668
 2324SOL    HW2 7597   1.818   2.269   4.151  2.4000  0.4804  2.9990
 2325SOL     OW 7598   2.321   2.690   2.116 -0.4507 -0.0853 -0.1131
 2325SOL    HW1 7599   2.347   2.633   2.193 -1.5328  0.3094  0.5750
 2325SOL    HW2 7600   2.398   2.747   2.088  0.6813 -1.9328 -0.8933
 2326SOL     OW 7601   3.953   2.593   4.054  0.4868  0.5921  0.6456
 2326SOL    HW1 7602   3.956   2.619   3.957 -0.7575 -2.1018 -0.2150
 2326SOL    HW2 7603   3.866   2.548   4.074  0.3620  1.8573  3.2839
 2327SOL     OW 7604   4.289   4.287   3.308  0.4100 -0.4573 -0.4406
 2327SOL    HW1 7605   4.305   4.221   3.234 -3.8035 -1.5541 -0.6249
 2327SOL    HW2 7606   4.249   4.370   3.270  1.7016  0.5479  0.2936
 2328SOL     OW 7607   2.473   3.730   0.715 -0.7324 -0.3072  0.1749
 2328SOL    HW1 7608   2.521   3.748   0.801 -0.5687  1.4404 -0.2527
 2328SOL    HW2 7609   2.377   3.754   0.725 -0.8077 -0.5290 -0.0031
 2329SOL     OW 7610   3.521   0.035   4.730 -0.4842 -0.2597 -0.2294
 2329SOL    HW1 7611   3.619   0.055   4.727 -0.3157 -0.4746  2.1360
 2329SOL    HW2 7612   3.469   0.117   4.705  0.2686 -0.0658 -1.2259
 2330SOL     OW 7613   0.571   2.579   1.571 -0.0864  0.7571 -0.0947
 2330SOL    HW1 7614   0.505   2.647   1.599 -0.1409  1.6858 -2.2633
 2330SOL    HW2 7615   0.663   2.607   1.600 -0.2449  1.1906 -0.0097
 2331SOL     OW 7616   3.776   0.612   4.853  0.9607 -0.6482  0.8804
 2331SOL    HW1 7617   3.867   0.598   4.891  1.0609  1.2305  1.4007
 2331SOL    HW2 7618   3.784   0.660   4.765  0.4303  0.9679  1.6828
 2332SOL     OW 7619   1.786   3.461   3.972 -0.1383  0.7587  0.7240
 2332SOL    HW1 7620   1.874   3.431   3.932 -1.2127  0.4696 -1.6038
 2332SOL    HW2 7621   1.725   3.382   3.979 -1.0169  1.3655  0.0450
 2333SOL     OW 7622   3.861   0.393   4.000 -1.5597 -0.0812 -0.0230
 2333SOL    HW1 7623   3.890   0.455   3.927 -1.1308 -1.0016 -0.6640
 2333SOL    HW2 7624   3.791   0.330   3.964  0.4484 -2.2106 -0.4270
 2334SOL     OW 7625   3.178   4.106   1.337 -0.4438  0.1892 -0.6600
 2334SOL    HW1 7626   3.194   4.081   1.433  2.0716  0.1287 -1.0310
 2334SOL    HW2 7627   3.233   4.186   1.314 -0.4329 -0.2564 -2.2745
 2335SOL     OW 7628   2.108   2.597   4.898  0.2429  0.7233  0.1777
 2335SOL    HW1 7629   2.010   2.613   4.887  0.2159  1.2319  1.0523
 2335SOL    HW2 7630   2.158   2.647   4.827 -0.1571 -0.1422 -0.7370
 2336SOL     OW 7631   4.135   0.503   1.777  0.3365  0.1377 -0.2909
 2336SOL    HW1 7632   4.235   0.505   1.782  0.3557 -0.1881 -0.4850
 2336SOL    HW2 7633   4.102   0.589   1.739  0.5163  0.4181  0.1716
 2337SOL     OW 7634   4.043   0.082   1.200 -1.0035  0.9201 -0.1307
 2337SOL    HW1 7635   3.977   0.156   1.187 -0.0429  1.5272 -1.8771
 2337SOL    HW2 7636   4.104   0.077   1.120 -0.5525 -1.2646  0.2900
 2338SOL     OW 7637   4.884   3.969   0.362  1.0435  0.1502 -0.0398
 2338SOL    HW1 7638   4.874   3.878   0.402  0.9313  0.4298  0.5769
 2338SOL    HW2 7639   4.980   3.999   0.370  0.7982  0.6951  1.1185
 2339SOL     OW 7640   1.162   4.225   3.503  0.0629 -0.1217  0.2079
 2339SOL    HW1 7641   1.144   4.165   3.425 -3.2464  3.0120 -1.8131
 2339SOL    HW2 7642   1.256   4.259   3.498  0.7240 -1.9665 -0.8822
 2340SOL     OW 7643   2.869   2.611   3.142  0.5459  0.2071 -0.3542
 2340SOL    HW1 7644   2.850   2.633   3.047 -1.9367 -0.8437 -0.1642
 2340SOL    HW2 7645   2.886   2.513   3.152  1.9211  0.4659  0.1749
 2341SOL     OW 7646   0.807   1.297   1.564  0.1134 -0.8795  0.5140
 2341SOL    HW1 7647   0.836   1.392   1.576 -0.6313 -0.7687  1.5190
 2341SOL    HW2 7648   0.707   1.292   1.568  0.1810 -1.7937  1.1884
 2342SOL     OW 7649   1.074   2.003   2.072 -0.8345  0.9248  0.0157
 2342SOL    HW1 7650   1.045   1.944   1.997 -1.5543  0.8572  0.3436
 2342SOL    HW2 7651   1.134   2.075   2.036 -3.0727  2.3534 -1.0665
 2343SOL     OW 7652   4.719   0.938   3.903 -0.5305  0.1108  0.2306
 2343SOL    HW1 7653   4.756   1.031   3.901 -0.3539  0.0443  0.4779
 2343SOL    HW2 7654   4.680   0.919   3.993 -0.0493 -0.2600  0.3624
 2344SOL     OW 7655   0.531   2.747   2.651  0.2259 -0.3439 -0.2696
 2344SOL    HW1 7656   0.438   2.717   2.672 -0.7948  2.3678 -0.4866
 2344SOL    HW2 7657   0.551   2.728   2.555 -0.0288 -1.0341 -0.1965
 2345SOL     OW 7658   2.095   2.161   1.209  0.3247  0.7900 -0.8248
 2345SOL    HW1 7659   2.111   2.254   1.178 -0.0793  0.8763 -0.7923
 2345SOL    HW2 7660   2.028   2.162   1.284  1.9832  0.6906  0.7403
 2346SOL     OW 7661   2.744   3.678   2.383 -0.8218  0.0922  1.1300
 2346SOL    HW1 7662   2.712   3.770   2.401  1.6081  1.0833  0.8219
 2346SOL    HW2 7663   2.727   3.655   2.287  1.2939  1.5119  0.3427
 2347SOL     OW 7664   3.106   0.265   4.675 -0.0456 -0.3547  0.3058
 2347SOL    HW1 7665   3.134   0.211   4.754 -0.3085 -0.0437  0.6167
 2347SOL    HW2 7666   3.007   0.262   4.666  0.0414 -1.0489 -0.4982
 2348SOL     OW 7667   1.851   1.518   2.086 -0.8737 -0.3854 -0.1676
 2348SOL    HW1 7668   1.797   1.504   2.169 -2.4006 -1.9698 -1.3496
 2348SOL    HW2 7669   1.938   1.470   2.095 -0.4957  0.4687  0.9599
 2349SOL     OW 7670   1.664   2.588   4.960 -0.3526 -0.3230 -0.1221
 2349SOL    HW1 7671   1.695   2.652   4.890 -2.3471 -0.8442 -1.5997
 2349SOL    HW2 7672   1.712   2.501   4.950  0.1066 -0.0642 -0.1731
 2350SOL     OW 7673   4.791   2.068   0.436  0.0522  0.3768  0.0104
 2350SOL    HW1 7674   4.819   2.023   0.351 -0.0570  0.6738 -0.1855
 2350SOL    HW2 7675   4.869   2.073   0.498 -0.3572 -1.6241  0.7280
 2351SOL     OW 7676   4.202   1.798   0.014 -0.0286  0.9180  0.3912
 2351SOL    HW1 7677   4.130   1.729   0.015  0.4430  0.4261  0.6438
 2351SOL    HW2 7678   4.247   1.801   0.103  3.2598 -1.9830 -0.9426
 2352SOL     OW 7679   1.877   2.021   3.444 -0.3225  0.7067 -0.5773
 2352SOL    HW1 7680   1.896   2.006   3.541 -0.5056 -1.8776 -0.8795
 2352SOL    HW2 7681   1.941   2.089   3.407  0.6703  0.6719  1.0153
 2353SOL     OW 7682   2.615   4.829   2.988  0.7058 -0.1306 -0.4141
 2353SOL    HW1 7683   2.558   4.747   2.992  2.4131 -1.3480  1.5761
 2353SOL    HW2 7684   2.564   4.905   2.948 -1.5849 -1.6598 -0.5113
 2354SOL     OW 7685   2.613   3.788   0.962 -0.6301 -0.3205 -0.1482
 2354SOL    HW1 7686   2.586   3.706   1.013  0.7654 -1.6211 -1.4043
 2354SOL    HW2 7687   2.689   3.766   0.901  0.0067  2.0187 -0.2884
 2355SOL     OW 7688   3.473   0.661   3.071  0.9836 -0.4493 -0.1931
 2355SOL    HW1 7689   3.456   0.679   3.168 -0.8301  1.8782 -0.8515
 2355SOL    HW2 7690   3.418   0.724   3.016  1.8568 -1.8135 -2.7530
 2356SOL     OW 7691   2.235   0.003   3.134 -0.4770  0.5123  0.3477
 2356SOL    HW1 7692   2.251   0.065   3.211 -1.9419  0.2513  0.9072
 2356SOL    HW2 7693   2.311   0.008   3.070  0.1009  1.8114  1.1037
 2357SOL     OW 7694   4.898   0.857   3.525  0.5029 -0.3759 -1.0070
 2357SOL    HW1 7695   4.867   0.786   3.588  0.2883 -1.0185 -1.8220
 2357SOL    HW2 7696   4.980   0.900   3.561 -0.1956 -0.0264  0.2065
 2358SOL     OW 7697   4.892   1.647   3.300 -0.1255  0.1374 -0.1447
 2358SOL    HW1 7698   4.835   1.708   3.355 -0.0780  0.6263 -0.6251
 2358SOL    HW2 7699   4.988   1.662   3.323  0.0076  1.3630 -1.3197
 2359SOL     OW 7700   0.293   4.058   4.493 -0.0220 -0.2555  0.1058
 2359SOL    HW1 7701   0.358   3.984   4.472  1.7645  0.4224  2.7436
 2359SOL    HW2 7702   0.237   4.031   4.572 -0.1962  0.7328  0.3250
 2360SOL     OW 7703   2.275   1.165   1.719  0.4997 -0.1307 -0.8730
 2360SOL    HW1 7704   2.346   1.135   1.783  0.9301  1.5586 -0.5127
 2360SOL    HW2 7705   2.209   1.223   1.767 -2.0991 -2.8650 -0.8100
 2361SOL     OW 7706   2.501   0.547   4.785 -0.0228 -0.2428  0.1837
 2361SOL    HW1 7707   2.417   0.595   4.760  0.5840  0.1654 -1.1966
 2361SOL    HW2 7708   2.482   0.449   4.792 -0.3463 -0.3479 -1.5995
 2362SOL     OW 7709   1.333   4.527   0.771  0.4541  0.2255  0.4923
 2362SOL    HW1 7710   1.409   4.505   0.710 -0.1027  1.1522 -0.5698
 2362SOL    HW2 7711   1.248   4.526   0.719 -0.3518 -1.1964  1.7467
 2363SOL     OW 7712   4.925   2.229   3.574  0.9759 -0.2288  0.5117
 2363SOL    HW1 7713   4.993   2.182   3.517  0.3202  0.6950 -1.1088
 2363SOL    HW2 7714   4.964   2.247   3.664  1.7336 -2.5545  0.7201
 2364SOL     OW 7715   4.033   1.106   4.538 -0.1414  0.3719 -0.1504
 2364SOL    HW1 7716   4.057   1.090   4.634 -1.0105  1.9529  0.3702
 2364SOL    HW2 7717   4.019   1.018   4.492  1.1227 -0.4355  0.9347
 2365SOL     OW 7718   4.465   4.156   4.456 -0.4575  0.1813 -0.1635
 2365SOL    HW1 7719   4.513   4.069   4.444 -3.2055 -1.5191  0.2212
 2365SOL    HW2 7720   4.531   4.231   4.455  1.9864 -1.8311 -0.9783
 2366SOL     OW 7721   1.933   4.083   3.471  0.0794 -0.6009  0.0850
 2366SOL    HW1 7722   1.912   3.991   3.440 -2.0826  0.4696 -1.9018
 2366SOL    HW2 7723   2.003   4.123   3.413  1.0486 -0.9480  0.9728
 2367SOL     OW 7724   1.752   4.357   2.431 -0.0812 -0.2310  0.2209
 2367SOL    HW1 7725   1.774   4.353   2.529  0.2582 -2.5525  0.1123
 2367SOL    HW2 7726   1.656   4.381   2.419  0.2779  1.7660  1.0311
 2368SOL     OW 7727   4.188   1.043   2.214  0.1675 -0.2159 -0.4200
 2368SOL    HW1 7728   4.104   1.063   2.163  0.6575 -0.7639 -1.4774
 2368SOL    HW2 7729   4.234   0.964   2.173  3.4265  2.5352 -2.7525
 2369SOL     OW 7730   3.926   2.917   3.355  0.1803  0.4435 -0.1910
 2369SOL    HW1 7731   3.906   2.850   3.284 -2.2969  1.1260 -0.2275
 2369SOL    HW2 7732   3.858   2.991   3.352  0.6147  1.0451  2.2028
 2370SOL     OW 7733   2.172   0.198   1.262 -0.4186 -0.4182  0.5124
 2370SOL    HW1 7734   2.142   0.197   1.357 -0.5700 -1.0145  0.4631
 2370SOL    HW2 7735   2.152   0.109   1.220  0.2019 -0.3703  0.1014
 2371SOL     OW 7736   3.557   3.575   4.629  0.3056 -0.0189 -0.3060
 2371SOL    HW1 7737   3.644   3.574   4.579 -0.3127 -2.4224 -1.4907
 2371SOL    HW2 7738   3.530   3.669   4.647  2.4740  0.8155 -1.1069
 2372SOL     OW 7739   2.849   2.195   3.473 -0.2025 -0.2436 -0.6699
 2372SOL    HW1 7740   2.913   2.270   3.490 -0.2592 -0.1098 -1.0540
 2372SOL    HW2 7741   2.783   2.222   3.403 -0.5642 -0.4497 -0.4129
 2373SOL     OW 7742   2.439   1.913   4.065  1.0903 -0.2235 -0.4661
 2373SOL    HW1 7743   2.516   1.969   4.035  1.0996 -1.0639 -2.1238
 2373SOL    HW2 7744   2.353   1.957   4.039  0.9698  0.6411  1.2521
 2374SOL     OW 7745   3.751   1.230   1.195 -0.0180 -0.3314  0.2957
 2374SOL    HW1 7746   3.772   1.216   1.098 -1.6758 -1.5369  0.0731
 2374SOL    HW2 7747   3.833   1.262   1.243  1.2004 -1.0623 -1.2328
 2375SOL     OW 7748   3.526   1.424   2.651 -0.0490 -0.1560  0.3546
 2375SOL    HW1 7749   3.477   1.437   2.565 -2.0559 -1.6823  1.1779
 2375SOL    HW2 7750   3.582   1.504   2.670  1.1058 -0.1122 -2.7373
 2376SOL     OW 7751   3.281   0.311   1.177  0.0166 -0.1269 -0.7835
 2376SOL    HW1 7752   3.218   0.234   1.171 -0.5254  0.2781 -0.3949
 2376SOL    HW2 7753   3.277   0.363   1.092  1.2291 -1.1572 -1.4986
 2377SOL     OW 7754   4.195   0.216   0.885 -0.6361  0.7878  0.2478
 2377SOL    HW1 7755   4.242   0.276   0.950  0.6573  1.8523 -1.5805
 2377SOL    HW2 7756   4.254   0.139   0.862 -0.6148  1.0250 -0.5082
 2378SOL     OW 7757   2.483   4.919   1.688  0.8305 -1.2013  0.5765
 2378SOL    HW1 7758   2.478   4.899   1.786  0.3470 -1.5147  0.4885
 2378SOL    HW2 7759   2.421   4.994   1.666  0.0084 -1.9427  0.3057
 2379SOL     OW 7760   1.504   1.299   0.865  0.7320  1.0149  0.1975
 2379SOL    HW1 7761   1.486   1.392   0.896 -1.4537  1.8452 -3.0614
 2379SOL    HW2 7762   1.420   1.246   0.868  1.3473 -0.0445 -0.5092
 2380SOL     OW 7763   2.277   4.025   3.959 -0.8432 -0.4810  0.2226
 2380SOL    HW1 7764   2.180   4.047   3.956 -0.9298 -0.0343  3.0213
 2380SOL    HW2 7765   2.316   4.030   3.867 -4.0320 -3.6608 -1.5679
 2381SOL     OW 7766   0.743   4.987   3.049  0.2009  0.2855 -0.3290
 2381SOL    HW1 7767   0.774   4.935   2.969 -2.6352  0.9302 -1.9713
 2381SOL    HW2 7768   0.721   4.924   3.123 -2.4340 -0.9275 -2.0163
 2382SOL     OW 7769   0.987   2.738   2.972 -0.3116 -0.2747 -0.7535
 2382SOL    HW1 7770   0.903   2.686   2.953 -1.0588  0.9582 -0.9085
 2382SOL    HW2 7771   0.965   2.835   2.983  0.6648 -0.2909  2.1397
 2383SOL     OW 7772   2.642   2.210   3.330 -0.4205  0.3556 -0.4212
 2383SOL    HW1 7773   2.585   2.236   3.408  0.9112  0.7869  0.4535
 2383SOL    HW2 7774   2.662   2.290   3.274  0.8872  0.6213  0.3722
 2384SOL     OW 7775   3.783   1.039   1.680  0.8100  0.4941 -0.4202
 2384SOL    HW1 7776   3.765   0.946   1.714  1.6389  1.5175  3.2071
 2384SOL    HW2 7777   3.713   1.101   1.715  2.0675  1.7578 -0.0829
 2385SOL     OW 7778   2.349   2.056   1.203  0.1828 -0.9020  0.2544
 2385SOL    HW1 7779   2.251   2.077   1.201  0.1733 -0.9899 -0.8123
 2385SOL    HW2 7780   2.401   2.138   1.179  0.3273 -1.0379  0.0963
 2386SOL     OW 7781   0.391   0.221   3.903  0.0291  0.8993 -0.2120
 2386SOL    HW1 7782   0.412   0.136   3.950  0.6082  1.0173 -0.2534
 2386SOL    HW2 7783   0.299   0.251   3.928  0.5273  1.2561  1.2853
 2387SOL     OW 7784   0.039   2.320   0.072  0.0911 -0.4943  0.0934
 2387SOL    HW1 7785   0.085   2.355   0.154 -0.2165 -2.1461  1.0211
 2387SOL    HW2 7786   0.061   2.223   0.061  0.0789 -0.3267 -1.7731
 2388SOL     OW 7787   3.133   1.844   4.172 -0.1524  0.4256  0.8777
 2388SOL    HW1 7788   3.137   1.771   4.239  2.5210 -0.0831  0.2713
 2388SOL    HW2 7789   3.038   1.873   4.160 -1.2476 -2.5606  1.4940
 2389SOL     OW 7790   0.739   2.548   0.440 -0.1352  0.6516  1.1191
 2389SOL    HW1 7791   0.766   2.521   0.348  3.3304  0.4697  2.0417
 2389SOL    HW2 7792   0.654   2.600   0.436  0.3380  1.3904 -2.2515
 2390SOL     OW 7793   0.416   4.120   0.975  0.3225  0.5134 -0.3645
 2390SOL    HW1 7794   0.450   4.213   0.957  1.0843  0.2313 -0.4238
 2390SOL    HW2 7795   0.395   4.111   1.073 -4.0174  2.1108 -0.9007
 2391SOL     OW 7796   3.079   3.514   1.806  0.0282  0.1966  0.1037
 2391SOL    HW1 7797   3.053   3.476   1.717 -0.7150  1.1976 -0.1285
 2391SOL    HW2 7798   3.166   3.474   1.835  1.6486  1.6975 -2.3252
 2392SOL     OW 7799   3.796   0.180   3.126  0.9898  0.0079 -0.6311
 2392SOL    HW1 7800   3.840   0.239   3.057  3.2094 -2.3530 -1.4301
 2392SOL    HW2 7801   3.842   0.192   3.214  1.5329 -0.5815 -0.8270
 2393SOL     OW 7802   4.699   3.359   3.663  1.1232  1.3384  0.2261
 2393SOL    HW1 7803   4.702   3.279   3.723 -0.6071 -0.5712 -2.0214
 2393SOL    HW2 7804   4.767   3.426   3.692  1.8610 -0.4261  2.8961
 2394SOL     OW 7805   3.697   4.172   3.541  0.3582  0.0616  0.2242
 2394SOL    HW1 7806   3.600   4.144   3.535 -0.1691  0.8366  3.4370
 2394SOL    HW2 7807   3.703   4.263   3.581  2.4544  0.1671 -0.2414
 2395SOL     OW 7808   3.889   0.905   3.730  0.2127  0.9209  0.3544
 2395SOL    HW1 7809   3.904   1.003   3.744  1.9035  0.8718 -0.8362
 2395SOL    HW2 7810   3.881   0.886   3.632 -1.6209  0.0278  0.6313
 2396SOL     OW 7811   0.471   1.712   2.349  0.0873  1.1256 -0.0350
 2396SOL    HW1 7812   0.378   1.700   2.315 -0.1716  1.4798  0.5344
 2396SOL    HW2 7813   0.468   1.729   2.447  0.8921 -1.0925  0.4242
 2397SOL     OW 7814   1.332   4.546   4.577  0.0081 -0.0955  0.1835
 2397SOL    HW1 7815   1.389   4.607   4.522 -0.3337 -1.4850 -1.8170
 2397SOL    HW2 7816   1.379   4.525   4.663  1.1064  1.2031 -0.0674
 2398SOL     OW 7817   2.510   4.388   4.461 -0.3973 -0.2875  0.1858
 2398SOL    HW1 7818   2.490   4.457   4.391  0.6221  1.6053  1.6536
 2398SOL    HW2 7819   2.428   4.333   4.477 -1.3861  0.8189 -0.8001
 2399SOL     OW 7820   0.433   1.176   3.411 -1.3011 -0.1856 -0.7771
 2399SOL    HW1 7821   0.418   1.267   3.373  0.0343 -0.2139 -1.4340
 2399SOL    HW2 7822   0.363   1.113   3.376 -1.4601  0.3032 -1.3522
 2400SOL     OW 7823   0.211   4.384   1.295  0.2060 -1.2029 -0.2468
 2400SOL    HW1 7824   0.148   4.447   1.249  1.8814 -0.3730 -1.5543
 2400SOL    HW2 7825   0.295   4.434   1.319  1.8601 -3.0353 -1.9008
 2401SOL     OW 7826   4.289   4.289   0.570 -0.5586  0.0649  0.2130
 2401SOL    HW1 7827   4.368   4.233   0.594 -1.4562 -0.2845  2.5674
 2401SOL    HW2 7828   4.297   4.378   0.613 -0.4036  0.8755 -1.4047
 2402SOL     OW 7829   1.566   3.830   2.182 -0.3801  0.4482 -0.0221
 2402SOL    HW1 7830   1.636   3.871   2.124 -0.3904 -1.6898 -1.6307
 2402SOL    HW2 7831   1.606   3.808   2.271 -0.1794  3.0791  0.6380
 2403SOL     OW 7832   4.166   4.580   4.021 -0.2435  0.1163 -0.0715
 2403SOL    HW1 7833   4.252   4.534   4.042 -1.3314 -2.1829 -0.3378
 2403SOL    HW2 7834   4.181   4.679   4.017  2.0755 -0.1196  1.1922
 2404SOL     OW 7835   0.548   4.647   3.116  0.6581 -0.4752  0.0717
 2404SOL    HW1 7836   0.594   4.712   3.177  0.7967  0.8650 -1.3674
 2404SOL    HW2 7837   0.473   4.693   3.070  0.2161 -1.6042 -0.3653
 2405SOL     OW 7838   3.646   0.685   3.574  0.1731 -0.2564  0.3826
 2405SOL    HW1 7839   3.688   0.659   3.660  0.9324 -2.8014 -0.6848
 2405SOL    HW2 7840   3.670   0.619   3.503  0.9484  2.6199 -2.2447
 2406SOL     OW 7841   1.422   0.312   2.127  0.0171 -0.3449 -0.4245
 2406SOL    HW1 7842   1.433   0.304   2.226 -1.2228  0.6254 -0.1826
 2406SOL    HW2 7843   1.439   0.407   2.099 -0.9725 -0.2979 -0.9244
 2407SOL     OW 7844   4.097   0.750   1.981 -0.2341 -0.0279  0.1015
 2407SOL    HW1 7845   4.087   0.772   1.884  2.2970 -1.4187 -0.5424
 2407SOL    HW2 7846   4.168   0.807   2.022 -2.9533  2.3503  1.8903
 2408SOL     OW 7847   2.680   1.016   1.141  0.2015 -0.4539 -0.9478
 2408SOL    HW1 7848   2.590   1.054   1.124 -0.6469 -1.8747  0.1484
 2408SOL    HW2 7849   2.749   1.068   1.091 -0.9850  1.9047 -0.2324
 2409SOL     OW 7850   0.103   1.867   3.069 -0.1708 -0.3119  0.4160
 2409SOL    HW1 7851   0.144   1.784   3.032  0.4093 -1.4826  3.3885
 2409SOL    HW2 7852   0.091   1.934   2.996  3.8562 -1.1652 -1.2837
 2410SOL     OW 7853   1.858   3.793   0.024  0.5296 -0.2703  0.2358
 2410SOL    HW1 7854   1.839   3.726   0.096 -0.4819  0.0884  0.3192
 2410SOL    HW2 7855   1.914   3.751  -0.047 -0.2788 -1.2813  0.1807
 2411SOL     OW 7856   3.475   3.654   0.173  0.0901 -0.5116  1.0588
 2411SOL    HW1 7857   3.403   3.664   0.242 -0.4909  1.1691  0.2693
 2411SOL    HW2 7858   3.443   3.689   0.085  1.0429 -2.0241  0.0594
 2412SOL     OW 7859   0.886   1.236   3.273  0.3275  0.5760 -0.4666
 2412SOL    HW1 7860   0.970   1.287   3.293  0.6273  0.1782 -0.6951
 2412SOL    HW2 7861   0.856   1.257   3.180  0.4769  0.3007 -0.5767
 2413SOL     OW 7862   1.605   4.436   1.947  0.1614  0.1136 -0.1853
 2413SOL    HW1 7863   1.653   4.458   1.863  2.9973  4.0030  2.1274
 2413SOL    HW2 7864   1.668   4.442   2.024 -3.0235  0.6241  2.6104
 2414SOL     OW 7865   4.453   2.067   3.527 -0.3901  0.5388  0.4071
 2414SOL    HW1 7866   4.396   2.104   3.601  1.6185  1.0753  1.7523
 2414SOL    HW2 7867   4.393   2.034   3.454 -2.4178  3.0486  0.7489
 2415SOL     OW 7868   4.208   0.431   4.842  0.2257  0.5536 -0.5923
 2415SOL    HW1 7869   4.139   0.376   4.888 -0.8747  1.1704 -1.4665
 2415SOL    HW2 7870   4.248   0.496   4.907  1.7113 -1.3659  0.5150
 2416SOL     OW 7871   1.425   2.816   4.410  1.0883 -0.3525  0.5270
 2416SOL    HW1 7872   1.421   2.903   4.459 -4.1865  0.0562 -0.0947
 2416SOL    HW2 7873   1.368   2.748   4.456 -1.7057 -0.8483 -3.2039
 2417SOL     OW 7874   4.522   1.515   2.096 -0.6194 -0.1501 -0.3103
 2417SOL    HW1 7875   4.427   1.502   2.126 -0.5490  0.9852  0.4958
 2417SOL    HW2 7876   4.584   1.481   2.167 -0.4291 -0.2441 -0.5218
 2418SOL     OW 7877   0.069   0.581   3.653 -0.3039 -0.5916 -0.2060
 2418SOL    HW1 7878  -0.008   0.623   3.701 -1.9150 -1.1072 -2.2040
 2418SOL    HW2 7879   0.073   0.483   3.675  0.5738 -0.3521  0.8184
 2419SOL     OW 7880   4.322   3.089   1.683  1.5688  0.3699  0.9625
 2419SOL    HW1 7881   4.359   3.165   1.630 -1.1748  1.1269 -0.0915
 2419SOL    HW2 7882   4.355   3.002   1.646  2.7980  0.9883  0.5777
 2420SOL     OW 7883   2.518   2.737   3.181  0.2250  0.3614 -0.1319
 2420SOL    HW1 7884   2.609   2.769   3.152  1.4953 -1.1947  1.8015
 2420SOL    HW2 7885   2.505   2.761   3.277 -1.2395  0.1584 -0.2700
 2421SOL     OW 7886   1.407   3.366   0.245 -0.0686  0.2515 -0.1483
 2421SOL    HW1 7887   1.504   3.388   0.241 -0.2396  0.8316 -2.2647
 2421SOL    HW2 7888   1.390   3.306   0.324  1.6445  1.6486  1.3875
 2422SOL     OW 7889   0.204   1.804   2.647 -0.0461 -0.8921 -0.2343
 2422SOL    HW1 7890   0.206   1.875   2.717 -1.1490 -0.2506 -0.8296
 2422SOL    HW2 7891   0.291   1.802   2.598  0.7214 -1.3029  1.0745
 2423SOL     OW 7892   1.218   4.316   2.848 -0.4171  0.0657 -0.1212
 2423SOL    HW1 7893   1.306   4.281   2.878 -1.1521 -1.0824  0.7644
 2423SOL    HW2 7894   1.205   4.409   2.885  0.1777  0.0203  0.2136
 2424SOL     OW 7895   4.356   2.646   1.247 -0.6260 -0.1820  0.6969
 2424SOL    HW1 7896   4.338   2.630   1.343  0.3666 -1.5696  0.6877
 2424SOL    HW2 7897   4.390   2.561   1.205  0.0175  0.6841 -0.5995
 2425SOL     OW 7898   0.642   0.705   0.714  0.7754 -0.1682  0.4370
 2425SOL    HW1 7899   0.726   0.673   0.669  1.6771  0.0116  1.8961
 2425SOL    HW2 7900   0.665   0.780   0.776 -0.7357  0.9105 -0.2590
 2426SOL     OW 7901   3.664   2.691   3.393  1.0293  0.6485 -0.0649
 2426SOL    HW1 7902   3.741   2.674   3.454  1.7110  0.4158 -0.9743
 2426SOL    HW2 7903   3.694   2.683   3.298  0.4786  3.0432 -0.5082
 2427SOL     OW 7904   2.054   3.187   1.831 -0.2905 -0.3267  0.0105
 2427SOL    HW1 7905   2.055   3.089   1.849 -0.8083  0.1726  3.3175
 2427SOL    HW2 7906   2.069   3.203   1.733  0.9499 -3.6090 -0.4558
 2428SOL     OW 7907   1.401   0.261   0.810  0.4174 -0.1430 -0.1386
 2428SOL    HW1 7908   1.346   0.257   0.894  0.2579  1.7942 -0.1070
 2428SOL    HW2 7909   1.340   0.273   0.731  0.6746 -0.1196 -0.3366
 2429SOL     OW 7910   2.054   4.903   2.890 -0.7987 -0.2357 -1.0372
 2429SOL    HW1 7911   2.122   4.960   2.937 -1.0759 -0.1876 -0.6902
 2429SOL    HW2 7912   1.972   4.895   2.948 -2.6555  2.8307 -2.9327
 2430SOL     OW 7913   2.523   3.045   0.787  0.2850  0.1905  0.0327
 2430SOL    HW1 7914   2.492   2.989   0.863 -3.5316 -0.4259 -1.7473
 2430SOL    HW2 7915   2.623   3.051   0.788  0.5764 -2.6021  3.0250
 2431SOL     OW 7916   3.547   4.095   3.083 -0.0777  0.0202  0.0052
 2431SOL    HW1 7917   3.491   4.147   3.017 -0.6120  0.1555  0.5581
 2431SOL    HW2 7918   3.586   4.015   3.038  1.1527  1.1297 -1.0075
 2432SOL     OW 7919   4.321   2.577   2.407 -0.1887 -0.2059 -0.0281
 2432SOL    HW1 7920   4.372   2.586   2.321  0.4207 -0.7699  0.2619
 2432SOL    HW2 7921   4.228   2.611   2.394 -0.8675 -2.4302 -1.6305
 2433SOL     OW 7922   3.786   1.191   4.637 -0.6851 -0.8445  0.2395
 2433SOL    HW1 7923   3.874   1.173   4.593 -0.5691  1.1467 -0.4164
 2433SOL    HW2 7924   3.737   1.262   4.587 -0.9678  0.8574  2.7550
 2434SOL     OW 7925   4.691   0.478   1.731 -0.8823 -0.0655 -0.2924
 2434SOL    HW1 7926   4.616   0.543   1.728 -0.1303  0.8057 -0.7635
 2434SOL    HW2 7927   4.748   0.497   1.812  0.0559  0.7130 -1.1070
 2435SOL     OW 7928   4.729   2.484   4.385 -0.3485  0.1601 -0.0263
 2435SOL    HW1 7929   4.785   2.435   4.451 -2.8845 -1.5405  0.9715
 2435SOL    HW2 7930   4.692   2.567   4.427 -0.6091 -0.0323  0.1195
 2436SOL     OW 7931   2.834   3.099   1.213  0.6030 -0.6879  0.6553
 2436SOL    HW1 7932   2.814   3.136   1.304 -3.5103 -1.0877  0.0806
 2436SOL    HW2 7933   2.870   3.006   1.223 -1.9358 -1.6270  1.9625
 2437SOL     OW 7934   4.162   0.344   1.444 -0.3031  0.0386 -0.3755
 2437SOL    HW1 7935   4.220   0.405   1.498 -0.6680  0.9846 -1.0318
 2437SOL    HW2 7936   4.194   0.250   1.454  0.7161  0.4228  0.0700
 2438SOL     OW 7937   0.165   3.179   4.014 -0.2672  0.2760 -0.0512
 2438SOL    HW1 7938   0.206   3.186   4.105 -2.7539  0.5668  1.1343
 2438SOL    HW2 7939   0.214   3.239   3.950 -0.0042  2.0011  1.6967
 2439SOL     OW 7940   2.329   1.847   3.444 -1.0133 -0.2165 -0.0451
 2439SOL    HW1 7941   2.367   1.909   3.375  0.2495 -2.4282 -1.4290
 2439SOL    HW2 7942   2.263   1.785   3.402 -0.2484 -1.5909  0.7227
 2440SOL     OW 7943   0.885   2.578   2.620  0.2801  0.3345 -0.3232
 2440SOL    HW1 7944   0.901   2.558   2.716  0.5519 -0.9860 -0.6255
 2440SOL    HW2 7945   0.971   2.575   2.570 -0.0582 -0.6368 -0.8791
 2441SOL     OW 7946   3.285   1.595   1.123  0.3740  0.0133 -0.0123
 2441SOL    HW1 7947   3.286   1.661   1.048 -0.0575  3.9032  3.0683
 2441SOL    HW2 7948   3.379   1.581   1.156  0.7317 -2.7150 -1.9162
 2442SOL     OW 7949   4.417   1.546   3.628  0.2980  0.3205  0.0972
 2442SOL    HW1 7950   4.447   1.578   3.538  2.8215  0.5141  0.9213
 2442SOL    HW2 7951   4.476   1.585   3.698 -0.5768 -1.1260  1.7195
 2443SOL     OW 7952   3.335   4.690   3.383  0.1408  0.5190 -0.0893
 2443SOL    HW1 7953   3.287   4.765   3.336  1.3213  1.2341 -0.2008
 2443SOL    HW2 7954   3.368   4.722   3.471 -2.3137 -0.9039  1.4622
 2444SOL     OW 7955   2.964   1.899   1.817  0.3333  0.6160 -0.1821
 2444SOL    HW1 7956   2.885   1.957   1.796 -1.0856 -1.1139  0.1799
 2444SOL    HW2 7957   2.968   1.824   1.751  2.7695  1.6257 -1.2991
 2445SOL     OW 7958   4.223   3.251   4.095  0.5046 -1.2808  0.0889
 2445SOL    HW1 7959   4.288   3.176   4.082 -0.4570 -2.4667  1.7694
 2445SOL    HW2 7960   4.179   3.272   4.008  1.8457 -1.6525 -0.7061
 2446SOL     OW 7961   1.083   0.936   3.590 -0.0550  0.3665  0.5146
 2446SOL    HW1 7962   1.056   0.960   3.683 -0.3534 -1.1640  0.8609
 2446SOL    HW2 7963   1.002   0.935   3.531 -1.0713 -4.1333  1.5325
 2447SOL     OW 7964   2.314   1.561   4.965 -0.2586  0.5836  0.4050
 2447SOL    HW1 7965   2.225   1.539   5.006 -0.3959  0.0693 -0.1531
 2447SOL    HW2 7966   2.320   1.659   4.949 -2.0369  0.3475 -2.4656
 2448SOL     OW 7967   4.075   4.730   4.487 -0.3646  0.5537  0.5363
 2448SOL    HW1 7968   4.083   4.737   4.587 -0.4460 -0.5318  0.6292
 2448SOL    HW2 7969   4.142   4.665   4.452 -0.3172  0.9486 -0.1274
 2449SOL     OW 7970   0.257   1.745   4.303 -0.3486  0.2397 -0.8491
 2449SOL    HW1 7971   0.321   1.821   4.304 -0.9973  0.7856 -0.4876
 2449SOL    HW2 7972   0.234   1.722   4.208  0.4770 -0.0517 -0.9844
 2450SOL     OW 7973   2.858   4.770   2.919 -0.6049 -0.2530  0.6026
 2450SOL    HW1 7974   2.839   4.783   2.822  2.9026 -0.5984 -0.2507
 2450SOL    HW2 7975   2.810   4.840   2.972 -1.6436  0.6901 -1.4852
 2451SOL     OW 7976   0.398   1.702   3.843 -0.9446  0.7330 -0.5331
 2451SOL    HW1 7977   0.427   1.651   3.763  1.1406  0.5788  0.2642
 2451SOL    HW2 7978   0.330   1.649   3.894 -0.7508 -0.0790 -1.1108
 2452SOL     OW 7979   0.189   2.576   1.305 -0.0253 -0.3376 -0.3811
 2452SOL    HW1 7980   0.167   2.520   1.385  0.1328 -2.1569 -1.5542
 2452SOL    HW2 7981   0.110   2.634   1.282  0.0372  0.4495  1.2311
 2453SOL     OW 7982   2.034   4.520   0.570 -0.9369 -0.2965  0.0043
 2453SOL    HW1 7983   2.040   4.544   0.473 -2.3597  1.5591  0.3175
 2453SOL    HW2 7984   2.123   4.488   0.602 -0.0207  0.5734 -1.5468
 2454SOL     OW 7985   2.382   1.630   0.850  0.7303  0.1295 -0.6749
 2454SOL    HW1 7986   2.307   1.589   0.797 -0.6364 -1.0046  1.9243
 2454SOL    HW2 7987   2.345   1.672   0.933  2.6906  2.4584 -0.8664
 2455SOL     OW 7988   0.322   2.122   0.687  0.4854 -0.4611 -0.1216
 2455SOL    HW1 7989   0.341   2.208   0.640  0.0140 -1.5512 -2.4569
 2455SOL    HW2 7990   0.281   2.057   0.623 -2.5960 -1.2735  2.4226
 2456SOL     OW 7991   4.060   4.672   0.476 -0.1885 -0.0367 -0.4116
 2456SOL    HW1 7992   4.006   4.752   0.452 -0.5587 -0.4198 -0.8653
 2456SOL    HW2 7993   4.018   4.626   0.554 -0.3554 -0.1682 -0.5781
 2457SOL     OW 7994   4.749   2.632   4.763 -0.0638 -0.5270 -0.0096
 2457SOL    HW1 7995   4.798   2.552   4.797  0.8134  0.0455  0.1234
 2457SOL    HW2 7996   4.732   2.623   4.665 -0.1857 -0.9770  0.0523
 2458SOL     OW 7997   1.300   3.110   0.302 -1.2764 -0.0218 -0.3607
 2458SOL    HW1 7998   1.223   3.091   0.362 -0.0102 -2.8232  0.5508
 2458SOL    HW2 7999   1.316   3.031   0.242  3.0291 -1.3078  2.0435
 2459SOL     OW 8000   1.687   3.720   3.471  1.0245  0.1422 -0.2365
 2459SOL    HW1 8001   1.748   3.672   3.534  2.9762  0.5624 -1.7122
 2459SOL    HW2 8002   1.594   3.722   3.509  1.6648 -1.5092  1.5633
 2460SOL     OW 8003   2.979   1.310   2.100 -0.6399  0.1087 -0.2197
 2460SOL    HW1 8004   2.921   1.266   2.032 -0.8245 -1.7623  1.0809
 2460SOL    HW2 8005   3.006   1.244   2.170  2.0516  1.1976 -0.0701
 2461SOL     OW 8006   2.402   1.026   3.702 -0.5276 -0.2330  0.6642
 2461SOL    HW1 8007   2.352   0.951   3.745  0.8556 -2.3307 -1.1914
 2461SOL    HW2 8008   2.475   1.057   3.762 -0.2954 -1.2761  0.9296
 2462SOL     OW 8009   3.470   3.408   3.673 -0.6486  0.1021 -0.2804
 2462SOL    HW1 8010   3.427   3.338   3.730 -2.1792  0.2369 -1.2376
 2462SOL    HW2 8011   3.437   3.498   3.701  1.5741  0.5316  1.1799
 2463SOL     OW 8012   1.211   4.159   1.159  0.1119  0.1208 -0.2975
 2463SOL    HW1 8013   1.185   4.251   1.130 -1.2431  0.1708  0.9818
 2463SOL    HW2 8014   1.222   4.101   1.079 -0.5016  1.0104 -1.0495
 2464SOL     OW 8015   3.586   4.815   3.703  0.7487 -0.7006 -0.2876
 2464SOL    HW1 8016   3.623   4.778   3.618  2.4884 -1.0775  0.5739
 2464SOL    HW2 8017   3.642   4.784   3.780  2.1514  3.4056  0.5933
 2465SOL     OW 8018   0.208   3.111   4.747 -0.3667  0.0623 -0.1895
 2465SOL    HW1 8019   0.200   3.118   4.846 -0.1994 -0.7479 -0.1112
 2465SOL    HW2 8020   0.227   3.202   4.708  0.2595  0.2758  0.5874
 2466SOL     OW 8021   3.819   2.856   4.734  1.2303  0.2703  0.7790
 2466SOL    HW1 8022   3.799   2.779   4.673  1.0023 -0.0548  1.2550
 2466SOL    HW2 8023   3.904   2.901   4.705  0.5407  0.8182 -0.4445
 2467SOL     OW 8024   3.904   4.125   3.763  0.8574  0.0151  0.0838
 2467SOL    HW1 8025   3.866   4.108   3.672  0.1640  1.2622  0.1216
 2467SOL    HW2 8026   3.990   4.175   3.754 -0.0297  1.6111  0.1314
 2468SOL     OW 8027   3.722   0.710   2.886 -0.0390 -0.5385 -0.6660
 2468SOL    HW1 8028   3.647   0.694   2.951  0.4667 -2.9568 -0.5775
 2468SOL    HW2 8029   3.684   0.718   2.793 -0.5243  0.0563 -0.4269
 2469SOL     OW 8030   2.479   4.044   0.883  0.5646  0.1650  0.0287
 2469SOL    HW1 8031   2.540   4.086   0.816  1.4266  1.2869  1.4656
 2469SOL    HW2 8032   2.530   3.977   0.937 -0.5499 -2.0845 -1.5430
 2470SOL     OW 8033   0.979   1.075   4.973 -0.0758 -0.0887  0.4830
 2470SOL    HW1 8034   0.982   1.168   4.935 -1.8490 -0.3804 -0.4812
 2470SOL    HW2 8035   1.026   1.074   5.061  1.5634  1.2886 -0.3231
 2471SOL     OW 8036   0.194   4.959   4.866 -1.6263  0.2387 -0.0526
 2471SOL    HW1 8037   0.118   4.933   4.805 -1.4346  1.9633 -1.0904
 2471SOL    HW2 8038   0.192   5.057   4.881  2.4777  1.0682 -3.1425
 2472SOL     OW 8039   3.552   2.784   4.411  1.1766 -0.2181  0.1230
 2472SOL    HW1 8040   3.614   2.859   4.388  0.4255  0.0763 -1.0642
 2472SOL    HW2 8041   3.564   2.709   4.346  1.0144 -0.5878  0.5130
 2473SOL     OW 8042   2.218   4.986   1.100 -0.7713  0.3962 -0.5698
 2473SOL    HW1 8043   2.309   5.018   1.128 -1.7964  1.3404  1.9650
 2473SOL    HW2 8044   2.206   4.891   1.129 -0.1297 -0.1983 -2.1618
 2474SOL     OW 8045   2.058   2.612   0.558 -0.3046  0.0468 -0.6226
 2474SOL    HW1 8046   2.146   2.650   0.529  0.2584 -0.9001 -0.2229
 2474SOL    HW2 8047   2.055   2.515   0.533 -1.1729  0.0370 -0.4837
 2475SOL     OW 8048   1.219   3.485   3.105  0.5295  0.1550  0.4260
 2475SOL    HW1 8049   1.174   3.417   3.047  1.1398 -1.6278  1.9272
 2475SOL    HW2 8050   1.160   3.566   3.114 -0.5211 -0.4289 -0.8893
 2476SOL     OW 8051   2.138   3.374   1.547 -0.3924 -0.1662  0.1421
 2476SOL    HW1 8052   2.123   3.415   1.457  0.9518 -1.1023 -0.5516
 2476SOL    HW2 8053   2.172   3.443   1.611  1.9014 -0.1068 -1.0169
 2477SOL     OW 8054   3.549   4.095   4.250 -1.0569  0.1144  0.1879
 2477SOL    HW1 8055   3.646   4.101   4.225 -0.9908  0.0911  0.4325
 2477SOL    HW2 8056   3.493   4.096   4.167 -0.7935 -0.9839 -0.0308
 2478SOL     OW 8057   1.955   2.429   2.902 -0.2041  0.6986  0.2434
 2478SOL    HW1 8058   1.869   2.475   2.881  0.6018  1.8750 -0.6110
 2478SOL    HW2 8059   2.031   2.483   2.866  0.8031 -1.2655 -0.7134
 2479SOL     OW 8060   2.276   4.481   0.753  0.8800  0.0514  0.4900
 2479SOL    HW1 8061   2.233   4.452   0.839 -0.1398  1.6497  0.5582
 2479SOL    HW2 8062   2.268   4.580   0.744  1.7257  0.0044 -1.0644
 2480SOL     OW 8063   1.224   1.766   2.990  0.7993 -0.0208 -0.0197
 2480SOL    HW1 8064   1.181   1.799   3.074 -0.8248 -0.9197 -0.4582
 2480SOL    HW2 8065   1.211   1.833   2.917  2.2275  0.7693  0.4003
 2481SOL     OW 8066   0.240   3.605   4.985 -0.4243 -0.0084 -0.6940
 2481SOL    HW1 8067   0.190   3.688   5.011 -1.1488 -0.9171  0.9756
 2481SOL    HW2 8068   0.338   3.619   5.002 -0.7534 -0.1898  1.7472
 2482SOL     OW 8069   1.534   1.885   2.642 -0.4311 -0.5575 -0.4976
 2482SOL    HW1 8070   1.491   1.810   2.592 -0.4002 -1.7207  1.1384
 2482SOL    HW2 8071   1.535   1.968   2.585 -1.0763 -1.6073 -2.0849
 2483SOL     OW 8072   3.803   0.816   0.462 -0.3902  0.2288  0.1069
 2483SOL    HW1 8073   3.828   0.723   0.435 -1.4804 -0.0896  0.1299
 2483SOL    HW2 8074   3.739   0.854   0.395  0.5451  1.2291 -0.2586
 2484SOL     OW 8075   3.364   0.704   0.649 -0.0155  0.1148  1.5581
 2484SOL    HW1 8076   3.279   0.651   0.655 -1.1305  1.7303  0.9750
 2484SOL    HW2 8077   3.342   0.802   0.653  1.7754  0.5938  0.7181
 2485SOL     OW 8078   1.197   2.841   2.304  0.1545 -0.4439 -0.4755
 2485SOL    HW1 8079   1.269   2.798   2.250  1.8925  1.0203  0.5910
 2485SOL    HW2 8080   1.225   2.934   2.330 -1.2257 -0.5833  1.7375
 2486SOL     OW 8081   3.914   0.538   4.236 -0.2232  0.1097  0.4320
 2486SOL    HW1 8082   4.012   0.552   4.251 -0.3475  1.2129  0.3112
 2486SOL    HW2 8083   3.900   0.484   4.153  0.2874 -0.3608  0.6461
 2487SOL     OW 8084   3.526   2.132   3.040 -0.0013 -0.2398 -0.4907
 2487SOL    HW1 8085   3.568   2.045   3.013  0.3952 -0.2993  0.3040
 2487SOL    HW2 8086   3.470   2.118   3.121 -0.3506  0.1527 -0.6617
 2488SOL     OW 8087   4.646   4.365   3.910  0.3516  0.7604  1.0732
 2488SOL    HW1 8088   4.600   4.305   3.976 -1.3244  1.4586  0.5895
 2488SOL    HW2 8089   4.719   4.415   3.957  1.3051 -1.0615  1.6479
 2489SOL     OW 8090   3.798   4.815   4.690  0.1484 -1.2441  0.3319
 2489SOL    HW1 8091   3.799   4.910   4.660 -1.1887 -0.1299  3.3283
 2489SOL    HW2 8092   3.874   4.799   4.753  1.9244 -3.0101 -2.0823
 2490SOL     OW 8093   0.579   3.794   2.061 -0.3064 -0.9957  0.7049
 2490SOL    HW1 8094   0.672   3.821   2.038  0.1234 -3.5093 -0.8563
 2490SOL    HW2 8095   0.516   3.828   1.991  0.1202 -3.0066 -0.7689
 2491SOL     OW 8096   4.513   2.689   2.933  0.4772  0.6192  0.0477
 2491SOL    HW1 8097   4.420   2.683   2.896  0.4419 -2.0336  0.3430
 2491SOL    HW2 8098   4.565   2.757   2.882 -1.5888  2.1439 -0.1500
 2492SOL     OW 8099   1.403   1.583   0.888 -0.5368 -0.3137  0.3114
 2492SOL    HW1 8100   1.485   1.601   0.942 -0.9880 -1.3349  1.3799
 2492SOL    HW2 8101   1.335   1.538   0.945 -2.2719  1.4743 -0.2736
 2493SOL     OW 8102   1.139   1.642   4.003 -0.9772  0.0443  0.3056
 2493SOL    HW1 8103   1.086   1.588   3.937 -1.5397  0.1400  0.6698
 2493SOL    HW2 8104   1.140   1.595   4.091 -2.0626  0.9296  0.8253
 2494SOL     OW 8105   2.914   0.723   3.694 -0.1701 -0.1281  0.2747
 2494SOL    HW1 8106   2.860   0.775   3.760 -2.9108 -0.2648 -1.6986
 2494SOL    HW2 8107   2.972   0.785   3.641 -0.2336  0.3495  0.7564
 2495SOL     OW 8108   4.269   2.678   0.184  0.6967 -0.6345  0.1487
 2495SOL    HW1 8109   4.317   2.687   0.097 -0.7408  0.4449 -0.5759
 2495SOL    HW2 8110   4.184   2.627   0.170  0.3344 -0.2398  0.8534
 2496SOL     OW 8111   3.601   0.196   2.315  0.1816  0.0412 -0.1366
 2496SOL    HW1 8112   3.583   0.098   2.325  1.3581 -0.2862 -1.0208
 2496SOL    HW2 8113   3.593   0.240   2.405 -0.6792 -0.7907  0.2155
 2497SOL     OW 8114   1.500   4.231   2.697  0.8148  0.4310 -0.4961
 2497SOL    HW1 8115   1.572   4.164   2.681  1.1582  0.3405  1.1967
 2497SOL    HW2 8116   1.432   4.226   2.624  1.0336 -1.4923 -0.5981
 2498SOL     OW 8117   3.375   0.856   2.917 -0.2419  0.7974 -0.3099
 2498SOL    HW1 8118   3.430   0.865   2.834  1.4269  0.0805  0.6485
 2498SOL    HW2 8119   3.344   0.946   2.947  0.3069  1.2170 -0.9760
 2499SOL     OW 8120   2.960   2.325   3.147  0.5893  0.1439 -0.4422
 2499SOL    HW1 8121   2.929   2.364   3.060  0.4384 -1.6740 -1.2302
 2499SOL    HW2 8122   3.059   2.322   3.148  0.5811 -1.1619 -1.1976
 2500SOL     OW 8123   4.513   3.132   2.162  0.4340  0.2873  0.7745
 2500SOL    HW1 8124   4.527   3.174   2.252 -0.2362  0.6888  0.7035
 2500SOL    HW2 8125   4.561   3.045   2.158  0.4034  0.2247  1.5583
 2501SOL     OW 8126   3.903   1.839   0.904  0.6065  0.6179 -0.0904
 2501SOL    HW1 8127   4.001   1.841   0.881  0.4350 -0.7384 -1.0055
 2501SOL    HW2 8128   3.864   1.930   0.890  1.4375  0.8294 -1.0902
 2502SOL     OW 8129   2.337   2.992   3.209  0.0710  0.0810  0.1697
 2502SOL    HW1 8130   2.371   2.980   3.302  0.5870  2.7645  0.4120
 2502SOL    HW2 8131   2.238   2.986   3.208  0.1526 -2.9939  0.2892
 2503SOL     OW 8132   4.685   3.064   0.294  0.5668 -0.3185  0.2375
 2503SOL    HW1 8133   4.784   3.059   0.303  1.4492  2.8235 -4.2779
 2503SOL    HW2 8134   4.646   2.972   0.295  3.4364 -1.6468  2.0224
 2504SOL     OW 8135   2.562   4.833   0.256  0.3535  1.0609 -0.5260
 2504SOL    HW1 8136   2.539   4.742   0.220 -2.7053  0.1650  2.9999
 2504SOL    HW2 8137   2.635   4.825   0.324  1.6107  1.6932 -1.7471
 2505SOL     OW 8138   4.073   4.163   4.831  0.5229 -0.5823  0.3573
 2505SOL    HW1 8139   3.991   4.129   4.785 -2.0872 -0.6940  4.5201
 2505SOL    HW2 8140   4.149   4.099   4.816 -1.4761 -3.0386  0.0857
 2506SOL     OW 8141   4.577   0.440   4.925 -0.6073 -0.0736 -0.2212
 2506SOL    HW1 8142   4.635   0.488   4.991 -0.8679 -1.5199  1.1215
 2506SOL    HW2 8143   4.483   0.440   4.958 -0.4723 -2.2198  0.2789
 2507SOL     OW 8144   3.037   4.291   1.800 -0.3960 -0.9633  0.3620
 2507SOL    HW1 8145   3.018   4.311   1.704  2.9512 -0.3065 -0.2647
 2507SOL    HW2 8146   2.980   4.214   1.830 -2.7956 -0.0368 -1.5604
 2508SOL     OW 8147   2.927   0.484   2.668 -0.3481 -0.1000  0.3715
 2508SOL    HW1 8148   2.966   0.571   2.699  0.3149 -0.4672  0.5949
 2508SOL    HW2 8149   2.986   0.444   2.598  0.5564 -1.4114  1.8207
 2509SOL     OW 8150   0.119   4.123   1.306 -0.3254  0.4685  0.0116
 2509SOL    HW1 8151   0.020   4.139   1.298  0.1870  3.0897 -2.3337
 2509SOL    HW2 8152   0.169   4.207   1.289  2.4231 -1.2685 -1.3148
 2510SOL     OW 8153   1.041   1.290   4.026 -0.8339 -0.2561 -0.7209
 2510SOL    HW1 8154   0.959   1.311   4.079 -0.6151 -2.5045  0.6199
 2510SOL    HW2 8155   1.123   1.310   4.080 -0.4429  1.7160 -1.9496
 2511SOL     OW 8156   3.063   4.514   0.584  0.6720  0.0929 -0.5298
 2511SOL    HW1 8157   3.052   4.536   0.488 -0.4376 -0.6544 -0.5872
 2511SOL    HW2 8158   3.021   4.425   0.603 -2.4396  1.7798  1.3518
 2512SOL     OW 8159   1.233   0.965   2.593  0.7676  0.3400  0.4799
 2512SOL    HW1 8160   1.300   0.910   2.643  2.5639  0.4650 -1.6397
 2512SOL    HW2 8161   1.193   0.910   2.519 -1.3596  0.3463  1.5507
 2513SOL     OW 8162   1.768   1.265   0.762  0.2929  0.2361 -0.3509
 2513SOL    HW1 8163   1.675   1.267   0.798  0.5808  0.1277  0.4050
 2513SOL    HW2 8164   1.825   1.206   0.819  1.4675  2.3380  0.7606
 2514SOL     OW 8165   3.609   3.330   0.673  0.2010  0.0512  0.3820
 2514SOL    HW1 8166   3.693   3.282   0.648 -0.9661 -1.5182 -0.7628
 2514SOL    HW2 8167   3.551   3.270   0.728 -0.8316  0.5042 -0.1741
 2515SOL     OW 8168   2.203   0.931   0.888  0.2467 -0.1549 -0.0314
 2515SOL    HW1 8169   2.242   0.839   0.883  0.1874 -0.1531 -0.5890
 2515SOL    HW2 8170   2.139   0.936   0.964 -1.2695 -1.1740 -1.1982
 2516SOL     OW 8171   0.670   3.265   0.920  0.2682 -0.2672 -0.0794
 2516SOL    HW1 8172   0.762   3.269   0.883 -0.6792  0.8340 -2.4874
 2516SOL    HW2 8173   0.613   3.206   0.862 -1.0748  0.8443  0.0606
 2517SOL     OW 8174   4.026   2.545   0.138  0.3360 -0.7161  0.1771
 2517SOL    HW1 8175   3.996   2.639   0.119 -0.0883 -1.1295 -1.3171
 2517SOL    HW2 8176   3.962   2.480   0.096  0.6386 -1.6895  1.1665
 2518SOL     OW 8177   4.260   1.700   0.303  0.5418 -0.6517 -0.8667
 2518SOL    HW1 8178   4.305   1.635   0.364  1.2645  2.0336  1.6902
 2518SOL    HW2 8179   4.310   1.787   0.304 -2.4915  1.2528 -0.9548
 2519SOL     OW 8180   4.881   0.054   3.212  0.1630 -0.0943  0.0420
 2519SOL    HW1 8181   4.968   0.089   3.247  1.8800 -2.7541 -1.2649
 2519SOL    HW2 8182   4.863  -0.035   3.253 -1.7365  0.1639 -0.1403
 2520SOL     OW 8183   2.980   4.696   3.613 -0.5969 -0.1865 -0.0605
 2520SOL    HW1 8184   3.078   4.677   3.614 -0.2119  1.3403 -1.9437
 2520SOL    HW2 8185   2.930   4.613   3.589  0.2960 -0.7945  0.1344
 2521SOL     OW 8186   1.350   2.788   1.669  0.1604  0.2795  0.1684
 2521SOL    HW1 8187   1.329   2.818   1.762  1.8809 -0.6065  0.8920
 2521SOL    HW2 8188   1.426   2.723   1.671  0.3177  0.3234 -1.8797
 2522SOL     OW 8189   4.157   3.684   3.152 -0.4296  0.2894 -0.0884
 2522SOL    HW1 8190   4.160   3.702   3.054  0.7308 -1.9240 -0.5272
 2522SOL    HW2 8191   4.203   3.758   3.201  1.3370  0.1638 -1.4704
 2523SOL     OW 8192   4.233   2.146   4.300 -0.0893  0.9659 -0.0721
 2523SOL    HW1 8193   4.270   2.216   4.239 -3.9075  1.8220 -1.7032
 2523SOL    HW2 8194   4.189   2.190   4.379  0.1219  0.1933  0.4846
 2524SOL     OW 8195   4.794   3.958   3.661  0.0760 -0.0862  0.3958
 2524SOL    HW1 8196   4.731   4.032   3.681 -0.3851 -0.4264  0.2143
 2524SOL    HW2 8197   4.757   3.872   3.697  0.3346 -0.3208  0.1044
 2525SOL     OW 8198   2.810   4.148   1.823  0.1138  0.2752  0.6500
 2525SOL    HW1 8199   2.760   4.234   1.833 -2.3151 -0.9419 -0.4007
 2525SOL    HW2 8200   2.746   4.073   1.810  2.2336 -1.3796 -0.9284
 2526SOL     OW 8201   0.964   0.021   1.908 -0.6695  0.2041  0.3500
 2526SOL    HW1 8202   0.991   0.097   1.849 -1.4566 -0.8563 -1.4757
 2526SOL    HW2 8203   0.883   0.046   1.961 -1.3803  0.4093 -0.8028
 2527SOL     OW 8204   0.655   0.297   0.337  0.5626 -0.6169 -0.3169
 2527SOL    HW1 8205   0.734   0.329   0.285  0.9275 -0.6635  0.2036
 2527SOL    HW2 8206   0.596   0.374   0.360 -0.7003 -0.8262 -2.5734
 2528SOL     OW 8207   1.840   3.800   0.557  0.5240 -0.9640 -0.2598
 2528SOL    HW1 8208   1.812   3.706   0.578 -1.8364 -0.1177  0.6384
 2528SOL    HW2 8209   1.854   3.850   0.642  0.4712 -0.1203 -0.7449
 2529SOL     OW 8210   2.167   3.098   1.090 -0.4140  0.1616 -0.8474
 2529SOL    HW1 8211   2.077   3.065   1.060 -1.2481  0.5080  1.0928
 2529SOL    HW2 8212   2.238   3.036   1.057 -1.4513 -0.6867 -1.5619
 2530SOL     OW 8213   3.237   0.708   1.045  0.1293  0.1967 -0.0436
 2530SOL    HW1 8214   3.329   0.706   1.005  0.0226  1.7589 -0.4053
 2530SOL    HW2 8215   3.177   0.763   0.988 -1.2841 -1.4695 -0.2559
 2531SOL     OW 8216   4.892   4.796   1.973 -0.1262 -0.1742 -0.2248
 2531SOL    HW1 8217   4.961   4.850   1.924  1.7682 -1.7365  0.6073
 2531SOL    HW2 8218   4.822   4.858   2.009  1.0040  1.5316 -0.8070
 2532SOL     OW 8219   3.049   0.755   3.430 -0.0861  0.1793  0.4484
 2532SOL    HW1 8220   3.036   0.780   3.334 -0.0689 -0.6747  0.2155
 2532SOL    HW2 8221   3.130   0.698   3.439  0.9989  1.7630  1.2512
 2533SOL     OW 8222   0.291   4.497   4.355  0.0284 -0.0562 -0.5516
 2533SOL    HW1 8223   0.283   4.564   4.428  0.1527 -0.4877 -0.1404
 2533SOL    HW2 8224   0.229   4.420   4.372  1.0726 -0.8367 -0.1468
 2534SOL     OW 8225   3.843   4.185   4.975 -0.8196 -0.2950  0.5686
 2534SOL    HW1 8226   3.939   4.171   4.949 -0.8091  0.1989  0.3269
 2534SOL    HW2 8227   3.829   4.153   5.069 -0.3088  0.0338  0.7624
 2535SOL     OW 8228   4.511   2.641   2.196  0.2756  0.4472 -0.5418
 2535SOL    HW1 8229   4.456   2.669   2.118 -1.3938  1.1910  0.8365
 2535SOL    HW2 8230   4.589   2.585   2.164 -0.3855  0.6649 -2.6802
 2536SOL     OW 8231   2.845   0.169   1.366  0.3628 -0.6459 -0.6437
 2536SOL    HW1 8232   2.868   0.083   1.413  3.2005 -0.3309 -1.2791
 2536SOL    HW2 8233   2.766   0.154   1.307  0.1140 -2.5290  0.0905
 2537SOL     OW 8234   1.253   4.851   1.035 -0.7483  0.1004  0.1642
 2537SOL    HW1 8235   1.294   4.843   1.126 -1.3801 -0.4785  0.4098
 2537SOL    HW2 8236   1.235   4.760   0.998  0.5769  0.2899 -1.0612
 2538SOL     OW 8237   3.501   0.499   3.762 -0.1195  0.3866  0.5841
 2538SOL    HW1 8238   3.594   0.533   3.775  0.5258 -0.7823 -0.7320
 2538SOL    HW2 8239   3.493   0.407   3.799 -1.0934  0.8944  1.6987
 2539SOL     OW 8240   3.915   0.846   1.394  0.2705 -0.2042 -0.1041
 2539SOL    HW1 8241   3.979   0.770   1.378 -0.8519 -0.6212 -3.3213
 2539SOL    HW2 8242   3.821   0.812   1.389 -0.4238  0.4775  4.1213
 2540SOL     OW 8243   2.136   2.676   1.540 -0.1640  0.0708 -0.0715
 2540SOL    HW1 8244   2.039   2.697   1.540 -0.7588 -2.4179  0.3407
 2540SOL    HW2 8245   2.166   2.656   1.633  1.2492  2.6698  0.1224
 2541SOL     OW 8246   4.062   3.006   4.674  0.5853  0.3482  0.4319
 2541SOL    HW1 8247   4.106   3.026   4.762  0.8065 -0.7991  0.6027
 2541SOL    HW2 8248   4.131   3.004   4.602  0.4150  1.2064  0.2313
 2542SOL     OW 8249   3.979   0.906   0.170  0.3367 -0.6213 -1.2546
 2542SOL    HW1 8250   3.907   0.976   0.166 -3.0027 -3.6751 -0.3106
 2542SOL    HW2 8251   4.016   0.903   0.263  1.9349  1.0396 -1.7722
 2543SOL     OW 8252   0.924   3.817   4.913 -0.4633 -0.3988 -0.3311
 2543SOL    HW1 8253   0.886   3.866   4.992  2.0870 -0.7936  1.2345
 2543SOL    HW2 8254   1.007   3.863   4.882 -0.2921 -1.4374 -1.4888
 2544SOL     OW 8255   0.929   4.686   0.336  0.4698 -0.0518 -0.5919
 2544SOL    HW1 8256   0.972   4.649   0.419  2.2011  0.2018 -1.3256
 2544SOL    HW2 8257   0.871   4.617   0.294 -0.7991 -0.0408  1.0486
 2545SOL     OW 8258   4.362   4.000   2.567  1.0680 -0.2869 -0.7523
 2545SOL    HW1 8259   4.440   4.063   2.557  0.8025 -0.0681 -1.5295
 2545SOL    HW2 8260   4.285   4.035   2.514 -0.4793  0.9233  2.0839
 2546SOL     OW 8261   4.061   0.769   1.701 -0.2578  0.9110 -0.5755
 2546SOL    HW1 8262   4.108   0.837   1.645 -0.1472 -0.4482 -2.2029
 2546SOL    HW2 8263   3.968   0.755   1.666 -0.4070  0.4899 -0.0208
 2547SOL     OW 8264   2.255   2.929   1.427 -0.3327 -0.2734 -0.0181
 2547SOL    HW1 8265   2.185   2.967   1.488 -1.1590 -0.4338 -0.8501
 2547SOL    HW2 8266   2.255   2.830   1.433  0.7900 -0.2380  1.0124
 2548SOL     OW 8267   1.097   3.667   2.915 -0.7961  0.1827  0.2832
 2548SOL    HW1 8268   1.091   3.596   2.845 -1.8114 -1.3333  1.8286
 2548SOL    HW2 8269   1.045   3.747   2.885  0.8335  0.5663 -1.7342
 2549SOL     OW 8270   0.627   3.736   0.354 -0.3969 -0.1679  0.3420
 2549SOL    HW1 8271   0.559   3.681   0.402 -1.9287  0.8179 -0.5942
 2549SOL    HW2 8272   0.717   3.695   0.364 -1.3279 -2.3076  0.4570
 2550SOL     OW 8273   3.204   0.511   4.595  0.2177 -0.0005 -0.2871
 2550SOL    HW1 8274   3.159   0.424   4.613  1.5521 -0.9742 -1.3900
 2550SOL    HW2 8275   3.160   0.556   4.517  0.1912 -0.2023 -0.3891
 2551SOL     OW 8276   0.386   2.656   4.213  1.0996  0.4297 -0.0453
 2551SOL    HW1 8277   0.480   2.670   4.242  1.1324 -1.5408  0.9696
 2551SOL    HW2 8278   0.352   2.738   4.167  3.2906  1.1749 -0.4372
 2552SOL     OW 8279   2.483   0.026   4.291  0.4406 -0.3090  0.4396
 2552SOL    HW1 8280   2.456   0.112   4.335  0.4723  0.9279 -1.8022
 2552SOL    HW2 8281   2.582   0.024   4.281  0.4483 -0.6804  0.5829
 2553SOL     OW 8282   4.568   4.899   0.732  0.0210 -0.1537  0.1678
 2553SOL    HW1 8283   4.565   4.971   0.664 -0.2699  3.5891  3.7598
 2553SOL    HW2 8284   4.661   4.863   0.739  0.7665  1.6500 -0.1129
 2554SOL     OW 8285   4.469   4.110   0.131 -0.2953  0.2208  0.2145
 2554SOL    HW1 8286   4.410   4.159   0.068  0.3481  0.3174 -0.3172
 2554SOL    HW2 8287   4.546   4.168   0.157 -0.1340 -0.1040  0.4699
 2555SOL     OW 8288   4.167   4.047   1.115  0.6414  0.2327 -0.3403
 2555SOL    HW1 8289   4.166   3.982   1.039  1.6809  2.3458 -2.2874
 2555SOL    HW2 8290   4.091   4.112   1.103 -0.0605 -0.2571  1.2687
 2556SOL     OW 8291   4.529   0.605   2.551 -0.4364  0.3705 -0.0369
 2556SOL    HW1 8292   4.588   0.627   2.473 -0.8869 -1.9039 -1.1173
 2556SOL    HW2 8293   4.582   0.610   2.636  0.3831  1.6998 -0.6072
 2557SOL     OW 8294   3.023   0.072   0.796 -0.4834  0.8096 -0.8457
 2557SOL    HW1 8295   3.095   0.109   0.738  0.3072  2.4507  1.0734
 2557SOL    HW2 8296   2.979   0.146   0.847 -2.7266 -0.3004 -1.0422
 2558SOL     OW 8297   3.492   0.247   2.698  0.2961  0.5715  0.5333
 2558SOL    HW1 8298   3.533   0.168   2.651 -0.6324 -0.5937  1.6235
 2558SOL    HW2 8299   3.499   0.234   2.797 -1.6642  0.8620  0.7499
 2559SOL     OW 8300   3.009   4.171   1.067 -0.1073 -0.7623  0.3441
 2559SOL    HW1 8301   3.052   4.200   1.153  5.4837 -3.2814 -1.1083
 2559SOL    HW2 8302   2.942   4.099   1.086  0.5315 -0.8268  2.6774
 2560SOL     OW 8303   3.143   4.452   2.242  0.3284 -0.4061 -0.1309
 2560SOL    HW1 8304   3.146   4.377   2.177  0.8923 -2.1667  1.8109
 2560SOL    HW2 8305   3.185   4.533   2.202  0.3855 -1.3220 -2.0171
 2561SOL     OW 8306   2.730   1.764   4.399  0.0666  0.8324 -0.4645
 2561SOL    HW1 8307   2.781   1.847   4.377  2.9384  0.9288  5.0376
 2561SOL    HW2 8308   2.662   1.783   4.470  0.7006 -1.4241  0.8493
 2562SOL     OW 8309   1.732   4.643   4.759  0.0240 -0.1613 -0.2475
 2562SOL    HW1 8310   1.829   4.655   4.782  0.7881  0.4500 -3.3227
 2562SOL    HW2 8311   1.679   4.720   4.794  1.9662  3.6216 -4.6394
 2563SOL     OW 8312   1.823   4.567   0.729  0.0043 -0.6477 -0.8095
 2563SOL    HW1 8313   1.819   4.558   0.828 -0.1706 -0.3904 -0.7914
 2563SOL    HW2 8314   1.916   4.548   0.697  0.2030 -0.1511 -0.5363
 2564SOL     OW 8315   3.473   0.488   4.720 -0.0150  0.0547  0.2249
 2564SOL    HW1 8316   3.545   0.545   4.679  0.6614 -1.1716 -0.3834
 2564SOL    HW2 8317   3.386   0.506   4.674 -0.1339  1.6120  1.0179
 2565SOL     OW 8318   4.854   0.707   3.785  0.7443 -0.1681 -0.2987
 2565SOL    HW1 8319   4.818   0.773   3.852  0.9846 -1.6046  1.3068
 2565SOL    HW2 8320   4.780   0.647   3.755  0.3393  1.2711 -2.3977
 2566SOL     OW 8321   2.346   2.305   4.349  0.1286  0.3009 -1.5274
 2566SOL    HW1 8322   2.352   2.207   4.333  2.1879  0.5133 -2.3994
 2566SOL    HW2 8323   2.428   2.336   4.397  0.2693  1.8420 -2.7002
 2567SOL     OW 8324   3.851   0.147   3.394  0.3257  0.8768 -0.8648
 2567SOL    HW1 8325   3.784   0.084   3.435  0.5512  1.7511  0.9464
 2567SOL    HW2 8326   3.896   0.200   3.466  1.4233  1.8614 -2.2110
 2568SOL     OW 8327   1.547   3.689   0.507  0.5057 -0.3849 -0.4583
 2568SOL    HW1 8328   1.551   3.748   0.427  2.4679 -3.3290 -2.7239
 2568SOL    HW2 8329   1.454   3.654   0.518 -0.1546  1.2885 -0.3968
 2569SOL     OW 8330   2.163   0.291   4.561 -0.0404 -0.0251 -0.1532
 2569SOL    HW1 8331   2.121   0.236   4.633  1.1461 -0.2826  0.3574
 2569SOL    HW2 8332   2.142   0.251   4.472  1.8933 -2.1232  0.2648
 2570SOL     OW 8333   1.563   3.051   0.745 -0.8888 -0.0896 -0.4141
 2570SOL    HW1 8334   1.571   3.126   0.810 -2.3727 -1.9416  2.1062
 2570SOL    HW2 8335   1.629   2.980   0.768 -0.7896 -0.3823 -1.5504
 2571SOL     OW 8336   4.233   4.516   0.054  0.1270  0.3310  0.5753
 2571SOL    HW1 8337   4.162   4.558   0.109 -0.4525 -0.1848  0.2372
 2571SOL    HW2 8338   4.311   4.492   0.112  0.5390  1.9901  0.7449
 2572SOL     OW 8339   3.141   2.805   1.167  0.9078  0.8843 -0.0199
 2572SOL    HW1 8340   3.240   2.818   1.166  1.1071 -0.5319 -1.0912
 2572SOL    HW2 8341   3.103   2.850   1.248  2.3031  2.1616 -0.0253
 2573SOL     OW 8342   2.309   3.516   0.467  0.0862  0.4614 -0.0408
 2573SOL    HW1 8343   2.252   3.579   0.520 -1.3070 -1.4567  0.8546
 2573SOL    HW2 8344   2.380   3.477   0.526 -0.8946 -0.9828  0.2288
 2574SOL     OW 8345   3.260   3.860   0.667  0.4508  0.1014 -0.2706
 2574SOL    HW1 8346   3.330   3.909   0.615 -0.0843  1.1649 -0.0142
 2574SOL    HW2 8347   3.174   3.859   0.616  0.5037 -0.7751 -0.3667
 2575SOL     OW 8348   2.805   2.478   0.835 -0.0856  0.0259  0.5786
 2575SOL    HW1 8349   2.816   2.577   0.833  1.8843 -0.1552 -1.4884
 2575SOL    HW2 8350   2.709   2.455   0.817 -0.0465  1.5754 -2.2227
 2576SOL     OW 8351   3.105   0.727   4.305 -0.2604 -0.6075  0.3821
 2576SOL    HW1 8352   3.149   0.723   4.215 -1.6963 -0.7682 -0.3466
 2576SOL    HW2 8353   3.152   0.795   4.362  0.0071  0.2965 -0.8712
 2577SOL     OW 8354   1.142   1.600   2.169 -0.1867  0.8316  0.1518
 2577SOL    HW1 8355   1.182   1.583   2.259  0.3803  0.0117 -0.2453
 2577SOL    HW2 8356   1.043   1.610   2.178 -0.5116 -2.0323  0.5398
 2578SOL     OW 8357   1.197   1.739   4.913  0.1407 -0.0195  0.4765
 2578SOL    HW1 8358   1.118   1.772   4.861  1.0005 -0.3690 -1.0902
 2578SOL    HW2 8359   1.267   1.810   4.917  0.3846 -0.2607  0.5071
 2579SOL     OW 8360   1.751   3.538   0.599  0.0247 -0.1339 -0.2295
 2579SOL    HW1 8361   1.730   3.440   0.602  1.2992 -0.4155  0.7560
 2579SOL    HW2 8362   1.687   3.585   0.539 -0.9430 -1.4917 -0.2930
 2580SOL     OW 8363   3.608   2.560   4.244  0.3815 -0.4823 -0.1781
 2580SOL    HW1 8364   3.674   2.506   4.192  0.5168 -1.0159  0.5270
 2580SOL    HW2 8365   3.531   2.502   4.271 -0.8789  0.3488 -1.8038
 2581SOL     OW 8366   2.577   3.795   3.714  0.9209 -0.1190  0.9147
 2581SOL    HW1 8367   2.642   3.723   3.692  1.3304  0.6764 -0.6307
 2581SOL    HW2 8368   2.618   3.858   3.780  0.3184 -1.5972  2.7918
 2582SOL     OW 8369   0.767   2.644   4.986  0.2894 -0.7436 -0.4470
 2582SOL    HW1 8370   0.808   2.668   4.898  1.0365  2.3043  0.6258
 2582SOL    HW2 8371   0.667   2.641   4.975  0.2358  1.3389 -1.1179
 2583SOL     OW 8372   0.206   4.046   3.945  0.1421  0.4460  0.0561
 2583SOL    HW1 8373   0.193   3.980   3.871 -1.9731 -0.2541  0.9717
 2583SOL    HW2 8374   0.275   4.011   4.008  0.3514 -0.0137 -0.4163
 2584SOL     OW 8375   1.994   4.452   1.403 -0.3729  0.0079 -0.0596
 2584SOL    HW1 8376   1.971   4.370   1.349  1.8379 -0.0922 -0.9701
 2584SOL    HW2 8377   1.982   4.432   1.500  3.0223 -2.5674  0.0074
 2585SOL     OW 8378   2.048   4.682   1.781 -0.1012 -0.2926 -0.1642
 2585SOL    HW1 8379   1.964   4.693   1.728  0.0227 -0.3875 -0.3794
 2585SOL    HW2 8380   2.031   4.709   1.876  0.2808  2.1516 -0.7264
 2586SOL     OW 8381   1.678   0.036   0.076 -0.3766  0.6462  0.3604
 2586SOL    HW1 8382   1.733  -0.041   0.109 -0.7159  0.6616  0.9691
 2586SOL    HW2 8383   1.699   0.052  -0.021  0.1181  0.1577  0.3785
 2587SOL     OW 8384   4.036   2.826   1.797 -0.6366 -0.4390 -0.2338
 2587SOL    HW1 8385   4.018   2.733   1.828 -0.8750 -0.9432 -1.8322
 2587SOL    HW2 8386   4.025   2.889   1.874  0.1966 -1.7804  1.0337
 2588SOL     OW 8387   4.414   0.294   0.666  0.2269 -0.0402 -0.5273
 2588SOL    HW1 8388   4.451   0.218   0.614  2.4409  1.6633 -1.6032
 2588SOL    HW2 8389   4.321   0.313   0.637  0.1686 -1.3833 -1.2734
 2589SOL     OW 8390   4.343   0.890   2.045 -0.0749 -0.0826  0.2354
 2589SOL    HW1 8391   4.354   0.977   1.997 -2.6221  0.6555  0.8717
 2589SOL    HW2 8392   4.420   0.830   2.023  0.9214  1.7180 -1.4741
 2590SOL     OW 8393   2.255   4.503   1.319 -0.5147 -0.2979  0.2633
 2590SOL    HW1 8394   2.185   4.445   1.360  1.2817 -1.7434  1.4474
 2590SOL    HW2 8395   2.257   4.591   1.367 -1.6758 -0.1281  0.0313
 2591SOL     OW 8396   4.819   0.102   4.680 -0.2387 -0.6108  1.0121
 2591SOL    HW1 8397   4.901   0.129   4.730 -0.1618 -1.5683  1.4171
 2591SOL    HW2 8398   4.810   0.003   4.682  1.0204 -0.9610 -2.7816
 2592SOL     OW 8399   4.311   0.328   0.276  0.7577  0.6324 -0.0242
 2592SOL    HW1 8400   4.411   0.323   0.272  0.8780  0.2342  2.3569
 2592SOL    HW2 8401   4.272   0.279   0.198  2.3915 -1.9213  0.6632
 2593SOL     OW 8402   2.153   1.215   0.516  0.6996  0.0143  0.0893
 2593SOL    HW1 8403   2.132   1.122   0.546 -0.5471  0.3462  0.2979
 2593SOL    HW2 8404   2.246   1.219   0.481  0.4897 -1.5125 -0.7086
 2594SOL     OW 8405   1.796   3.949   1.458  0.6447 -0.0024  0.7421
 2594SOL    HW1 8406   1.860   3.883   1.497 -0.6680 -1.4130  0.6112
 2594SOL    HW2 8407   1.752   4.000   1.532  1.5496  0.6414  0.8511
 2595SOL     OW 8408   2.660   3.252   2.722  1.0311 -0.6577  0.6335
 2595SOL    HW1 8409   2.637   3.216   2.812  0.0672 -3.2749 -0.5601
 2595SOL    HW2 8410   2.640   3.183   2.652  4.0462  0.3492 -1.4036
 2596SOL     OW 8411   4.219   1.851   1.545  0.7482  0.1350 -0.7118
 2596SOL    HW1 8412   4.306   1.807   1.568  0.0668  0.5581  3.2219
 2596SOL    HW2 8413   4.205   1.846   1.446  4.2447 -1.7172 -1.2674
 2597SOL     OW 8414   1.253   2.783   2.602 -0.3965  0.8520  0.4060
 2597SOL    HW1 8415   1.330   2.731   2.565 -0.2528 -0.7115  2.7317
 2597SOL    HW2 8416   1.197   2.817   2.527  2.5104  2.0622 -1.3910
 2598SOL     OW 8417   0.565   2.760   3.431 -0.1737  0.2061 -0.2420
 2598SOL    HW1 8418   0.548   2.767   3.530  0.1818 -1.6238 -0.0187
 2598SOL    HW2 8419   0.478   2.762   3.383 -0.2824  3.0235 -0.0992
 2599SOL     OW 8420   1.822   0.249   1.187  0.0059 -0.0716  0.1641
 2599SOL    HW1 8421   1.763   0.291   1.256  0.2291 -1.6676  1.3932
 2599SOL    HW2 8422   1.917   0.250   1.220  0.4362  0.9784 -1.0534
 2600SOL     OW 8423   3.793   3.695   2.389  0.2242  0.1785  0.0631
 2600SOL    HW1 8424   3.863   3.766   2.380  2.2350 -1.9291 -2.9977
 2600SOL    HW2 8425   3.775   3.654   2.299 -0.5116 -3.3955  1.6414
 2601SOL     OW 8426   1.102   4.461   3.580  0.4832  0.2593  0.2227
 2601SOL    HW1 8427   1.104   4.364   3.557  2.1946  0.6981 -1.7271
 2601SOL    HW2 8428   1.178   4.483   3.640 -0.6121  0.2109  1.6777
 2602SOL     OW 8429   3.435   1.952   0.660  0.6646  0.1035  0.0929
 2602SOL    HW1 8430   3.528   1.959   0.624 -0.4247 -0.3429 -3.2488
 2602SOL    HW2 8431   3.429   1.874   0.722  2.6980  0.7450  1.1890
 2603SOL     OW 8432   2.455   0.283   2.921 -0.5577 -0.0428 -0.9944
 2603SOL    HW1 8433   2.530   0.340   2.888  1.3226 -1.5552  0.4255
 2603SOL    HW2 8434   2.416   0.324   3.003 -1.2579  0.7128 -1.6956
 2604SOL     OW 8435   4.507   1.778   3.812  0.3251 -0.5052 -0.5319
 2604SOL    HW1 8436   4.412   1.765   3.838  1.0971 -2.8865  1.5523
 2604SOL    HW2 8437   4.515   1.857   3.751 -3.0002 -0.5498 -1.2197
 2605SOL     OW 8438   3.262   1.796   3.523 -0.4885  0.2665  0.1118
 2605SOL    HW1 8439   3.189   1.862   3.506  1.8267  2.8727 -0.3483
 2605SOL    HW2 8440   3.230   1.704   3.498 -2.8450  1.6049 -2.3354
 2606SOL     OW 8441   4.104   3.070   0.906  0.1745  0.2073  0.0124
 2606SOL    HW1 8442   4.069   3.101   0.818 -0.3064  1.3559  0.5963
 2606SOL    HW2 8443   4.201   3.095   0.914  0.5886 -1.0632 -0.7093
 2607SOL     OW 8444   3.714   0.964   4.410  0.1834 -0.2076  0.0888
 2607SOL    HW1 8445   3.635   1.015   4.376 -0.2416 -1.8263 -1.5130
 2607SOL    HW2 8446   3.794   1.024   4.410 -0.5934  0.8687 -0.3385
 2608SOL     OW 8447   3.881   4.045   0.228  0.0708 -0.9996  0.3918
 2608SOL    HW1 8448   3.826   4.062   0.309 -0.5321  1.6157 -0.4806
 2608SOL    HW2 8449   3.977   4.031   0.255 -0.1236 -0.1767  1.5630
 2609SOL     OW 8450   4.953   4.392   1.725  0.4093  0.3003  0.5650
 2609SOL    HW1 8451   4.950   4.360   1.631 -1.0887 -0.1181  0.7348
 2609SOL    HW2 8452   5.047   4.390   1.758  0.7775 -0.7490 -0.5010
 2610SOL     OW 8453   1.886   1.828   3.041 -0.5430  0.5132 -0.0096
 2610SOL    HW1 8454   1.831   1.807   2.961 -0.9121 -0.2823  0.4400
 2610SOL    HW2 8455   1.830   1.821   3.123  0.2263 -0.4081  0.4640
 2611SOL     OW 8456   2.359   3.226   0.026  0.2929  0.1058 -0.2007
 2611SOL    HW1 8457   2.259   3.221   0.032  0.1231  1.8851 -0.7397
 2611SOL    HW2 8458   2.386   3.233  -0.070  0.7895  1.2699  0.0016
 2612SOL     OW 8459   2.245   4.919   4.242 -0.1865 -0.2377 -0.0439
 2612SOL    HW1 8460   2.224   4.833   4.196 -1.5498 -0.5424  1.0863
 2612SOL    HW2 8461   2.343   4.937   4.236 -0.3254  0.0887 -3.6179
 2613SOL     OW 8462   3.113   2.010   0.834 -0.2229 -0.6414 -0.6271
 2613SOL    HW1 8463   3.171   2.014   0.753  0.1663 -0.6224 -0.3495
 2613SOL    HW2 8464   3.116   2.098   0.882 -2.0520  0.0471 -1.6851
 2614SOL     OW 8465   3.812   4.618   2.053 -0.3960 -0.9306 -0.2793
 2614SOL    HW1 8466   3.842   4.580   2.141 -2.3502 -0.5779  0.5887
 2614SOL    HW2 8467   3.810   4.546   1.984  1.6679 -1.1054 -0.2086
 2615SOL     OW 8468   1.871   4.783   3.900 -0.3920  0.2543  0.8000
 2615SOL    HW1 8469   1.873   4.686   3.921 -0.7820 -0.4064 -1.9333
 2615SOL    HW2 8470   1.782   4.809   3.864  1.1647  0.2903 -3.6901
 2616SOL     OW 8471   3.489   4.070   2.245  0.3921 -0.4399 -0.1767
 2616SOL    HW1 8472   3.398   4.059   2.284  0.4360  0.8189  0.3388
 2616SOL    HW2 8473   3.553   4.098   2.317  0.5625  1.5396 -1.0227
 2617SOL     OW 8474   1.471   4.820   4.986 -0.7591 -0.2244 -0.7141
 2617SOL    HW1 8475   1.524   4.888   4.935 -2.1208  0.4714 -1.2522
 2617SOL    HW2 8476   1.496   4.824   5.083  1.6743 -1.3914 -1.2111
 2618SOL     OW 8477   2.456   1.705   0.277  0.3653 -0.6086 -0.0296
 2618SOL    HW1 8478   2.535   1.674   0.330 -1.2168 -1.0527  2.2592
 2618SOL    HW2 8479   2.477   1.700   0.180  2.5880 -2.2004  0.4347
 2619SOL     OW 8480   1.091   1.514   1.917  0.2482 -0.0058  0.0699
 2619SOL    HW1 8481   1.099   1.580   1.992 -2.1154  1.7434 -1.0890
 2619SOL    HW2 8482   1.155   1.540   1.844 -0.7393  1.1461 -0.4222
 2620SOL     OW 8483   2.471   1.349   3.400  0.0974 -0.0591 -0.2629
 2620SOL    HW1 8484   2.454   1.423   3.336  1.0089 -1.4426 -2.2053
 2620SOL    HW2 8485   2.422   1.267   3.371  0.0188 -0.5533  1.1844
 2621SOL     OW 8486   0.474   2.632   0.515  0.2088  0.7599  0.2216
 2621SOL    HW1 8487   0.381   2.638   0.480  0.3045 -1.9732 -0.7683
 2621SOL    HW2 8488   0.474   2.644   0.614 -1.4869 -0.9592  0.4694
 2622SOL     OW 8489   1.232   4.826   2.861 -0.4630  0.0012 -0.2925
 2622SOL    HW1 8490   1.283   4.851   2.780 -3.6304 -1.7269 -3.0943
 2622SOL    HW2 8491   1.146   4.878   2.864 -0.8998 -0.7476  1.3455
 2623SOL     OW 8492   4.177   1.997   2.003 -0.0663 -0.2538 -0.2408
 2623SOL    HW1 8493   4.167   1.931   2.078  2.6772 -0.0597  0.4018
 2623SOL    HW2 8494   4.219   2.081   2.037  1.5163 -0.2657 -1.9836
 2624SOL     OW 8495   2.228   1.907   1.417  0.1510  0.7267 -0.1065
 2624SOL    HW1 8496   2.259   1.903   1.323  1.2497  0.1063  0.2636
 2624SOL    HW2 8497   2.294   1.861   1.476  0.2798  2.4756  1.1773
 2625SOL     OW 8498   2.186   0.280   2.826  0.4946 -0.9324 -0.2133
 2625SOL    HW1 8499   2.185   0.370   2.782 -0.9401 -1.3190 -1.0527
 2625SOL    HW2 8500   2.256   0.278   2.897 -2.1211  2.3114  2.8291
 2626SOL     OW 8501   2.246   1.698   1.083 -0.1818  0.5182  0.1289
 2626SOL    HW1 8502   2.190   1.624   1.119 -1.7292  0.1506 -2.7517
 2626SOL    HW2 8503   2.188   1.767   1.041  1.4228  1.3383 -0.8529
 2627SOL     OW 8504   1.455   0.379   2.612 -0.9120  0.2408  0.4566
 2627SOL    HW1 8505   1.537   0.431   2.585 -0.5572 -0.2996  0.4748
 2627SOL    HW2 8506   1.380   0.401   2.551 -0.1688 -0.8253 -0.8982
 2628SOL     OW 8507   4.943   1.733   0.176 -0.6795 -0.1567  0.3377
 2628SOL    HW1 8508   4.866   1.797   0.175 -0.4858  0.1749  2.2402
 2628SOL    HW2 8509   4.993   1.739   0.090 -1.0556  1.7945  0.2192
 2629SOL     OW 8510   1.189   3.672   2.182 -0.0869 -0.0650 -0.8680
 2629SOL    HW1 8511   1.222   3.615   2.257 -1.4421 -1.4906 -1.2925
 2629SOL    HW2 8512   1.091   3.656   2.169 -0.5132  2.4144 -1.0144
 2630SOL     OW 8513   3.937   3.279   2.911  0.2938  0.7308  0.1319
 2630SOL    HW1 8514   4.014   3.238   2.962  0.0323 -1.1580 -0.9003
 2630SOL    HW2 8515   3.852   3.236   2.940 -0.1499  1.4276 -0.1282
 2631SOL     OW 8516   0.701   2.946   0.820 -0.5375 -0.2035 -0.5008
 2631SOL    HW1 8517   0.799   2.952   0.799 -0.5044  1.9947 -0.0162
 2631SOL    HW2 8518   0.690   2.926   0.918 -0.5811 -1.1574 -0.7007
 2632SOL     OW 8519   2.945   3.472   2.057  0.0269 -0.0649  0.1561
 2632SOL    HW1 8520   2.983   3.461   1.965 -0.4669 -1.4478  0.0843
 2632SOL    HW2 8521   2.866   3.412   2.067  0.3335 -0.2610  1.6261
 2633SOL     OW 8522   0.821   3.895   2.609  0.2740  0.6293  0.0962
 2633SOL    HW1 8523   0.896   3.879   2.673  2.3424  1.9922 -1.8186
 2633SOL    HW2 8524   0.805   3.994   2.602 -4.6456  0.4540  3.4751
 2634SOL     OW 8525   3.670   4.954   2.644 -0.0031 -0.1331  0.1149
 2634SOL    HW1 8526   3.617   4.898   2.707 -1.9580 -1.1706 -2.2699
 2634SOL    HW2 8527   3.648   4.927   2.550  0.8745  2.9810 -1.0961
 2635SOL     OW 8528   2.946   4.951   1.603 -0.2008 -0.0882  0.9144
 2635SOL    HW1 8529   2.932   4.856   1.629 -3.8382 -0.7078 -2.4369
 2635SOL    HW2 8530   2.860   5.002   1.613  0.0813  1.3416 -2.5026
 2636SOL     OW 8531   0.643   0.387   4.412  0.1059  0.6925 -0.1351
 2636SOL    HW1 8532   0.738   0.399   4.443  0.1970 -0.5130  0.1116
 2636SOL    HW2 8533   0.614   0.468   4.360  1.7560  0.5153 -1.4362
 2637SOL     OW 8534   3.346   4.498   0.953  0.2884 -0.0321 -0.1645
 2637SOL    HW1 8535   3.381   4.592   0.947  1.9396 -0.7131 -2.1063
 2637SOL    HW2 8536   3.421   4.435   0.971 -0.5447 -1.1535 -0.4632
 2638SOL     OW 8537   1.143   1.885   3.724 -0.3174 -0.6693  0.8731
 2638SOL    HW1 8538   1.161   1.981   3.702 -0.2280 -1.2649 -2.0275
 2638SOL    HW2 8539   1.229   1.840   3.747  0.0742 -0.6183 -0.4012
 2639SOL     OW 8540   1.669   4.355   4.121  0.0283 -0.1773 -0.2388
 2639SOL    HW1 8541   1.621   4.441   4.103 -0.0117  0.5102  2.6480
 2639SOL    HW2 8542   1.664   4.334   4.219  0.9658 -2.9397 -0.7060
 2640SOL     OW 8543   4.281   3.925   4.460 -0.2297 -0.9455 -0.4647
 2640SOL    HW1 8544   4.328   3.873   4.388  1.5314 -1.8803  1.2417
 2640SOL    HW2 8545   4.338   4.004   4.485 -1.0365 -0.3866 -0.3772
 2641SOL     OW 8546   0.520   0.047   1.870 -0.1330  0.2455  0.0141
 2641SOL    HW1 8547   0.521  -0.052   1.882  1.0035  0.5004  2.9985
 2641SOL    HW2 8548   0.467   0.071   1.789  0.3400 -2.8114 -1.3277
 2642SOL     OW 8549   4.109   1.990   3.588 -0.1060  0.5073 -0.3273
 2642SOL    HW1 8550   4.134   2.086   3.604 -0.8838  0.6318  0.2049
 2642SOL    HW2 8551   4.077   1.949   3.674 -2.7625  0.6874 -1.1323
 2643SOL     OW 8552   3.166   2.266   1.239  0.5072  0.0594  1.3620
 2643SOL    HW1 8553   3.256   2.298   1.210  0.0403 -0.7844 -1.2407
 2643SOL    HW2 8554   3.177   2.190   1.303  1.6554 -0.4430  0.5984
 2644SOL     OW 8555   3.440   0.084   1.300 -1.3499  0.6672 -0.0845
 2644SOL    HW1 8556   3.439   0.183   1.312  0.5809  0.6159  0.9607
 2644SOL    HW2 8557   3.359   0.044   1.343 -1.8172  1.7344  0.0416
 2645SOL     OW 8558   3.891   4.761   3.513  0.1246 -0.1273 -0.2522
 2645SOL    HW1 8559   3.984   4.780   3.480 -1.0173  1.2145 -3.0744
 2645SOL    HW2 8560   3.874   4.663   3.508  0.3313 -0.1178 -3.2172
 2646SOL     OW 8561   3.080   3.357   3.731 -0.8436 -0.6787 -0.3129
 2646SOL    HW1 8562   3.151   3.371   3.662  1.2583 -0.8168  1.7253
 2646SOL    HW2 8563   2.991   3.349   3.685  0.6472 -2.7657 -3.1983
 2647SOL     OW 8564   1.794   4.114   4.470 -0.4692  0.0377 -1.0859
 2647SOL    HW1 8565   1.698   4.086   4.476 -0.2045 -0.6275  0.5123
 2647SOL    HW2 8566   1.847   4.066   4.540  0.3712  3.2224  0.6465
 2648SOL     OW 8567   3.207   1.906   1.882 -0.3704 -0.3159 -0.4481
 2648SOL    HW1 8568   3.238   1.999   1.901 -0.7303 -0.5374  1.4009
 2648SOL    HW2 8569   3.110   1.907   1.862 -1.5120 -0.6370  4.0032
 2649SOL     OW 8570   4.395   1.760   2.807  0.1375  0.1283 -0.4434
 2649SOL    HW1 8571   4.325   1.720   2.748 -0.9662 -0.5520  1.2389
 2649SOL    HW2 8572   4.473   1.698   2.813 -1.0217 -1.2519  1.1336
 2650SOL     OW 8573   2.679   3.951   2.469  0.8125 -0.0902 -0.9989
 2650SOL    HW1 8574   2.596   3.971   2.521 -0.6867 -2.5232 -2.2399
 2650SOL    HW2 8575   2.756   3.943   2.532  0.0161  1.5709  0.2693
 2651SOL     OW 8576   1.784   4.201   1.927 -0.3175 -0.8246 -0.1814
 2651SOL    HW1 8577   1.879   4.224   1.906 -0.9790  1.4701 -0.9288
 2651SOL    HW2 8578   1.775   4.183   2.025  0.6519  0.3847  0.1613
 2652SOL     OW 8579   1.906   1.065   1.666  0.5634  0.2717 -0.7518
 2652SOL    HW1 8580   1.940   1.090   1.757  1.4064  0.8581 -1.2089
 2652SOL    HW2 8581   1.981   1.029   1.611 -0.0989 -0.8142 -0.9805
 2653SOL     OW 8582   0.830   4.440   1.883 -0.0188 -0.5615 -0.2848
 2653SOL    HW1 8583   0.738   4.399   1.884  0.9587 -3.2120 -2.7660
 2653SOL    HW2 8584   0.876   4.421   1.970 -0.9537 -1.4524  0.0395
 2654SOL     OW 8585   4.959   1.604   2.991 -0.2005 -0.2679 -0.2138
 2654SOL    HW1 8586   4.919   1.693   3.008  0.2955  0.8216 -3.8559
 2654SOL    HW2 8587   4.933   1.541   3.064 -0.4176  2.8057  2.6003
 2655SOL     OW 8588   4.255   0.258   4.389 -0.4866  0.3931 -0.2514
 2655SOL    HW1 8589   4.265   0.244   4.291 -0.9080  2.0021 -0.5601
 2655SOL    HW2 8590   4.163   0.234   4.418 -0.4917  0.3154 -0.3329
 2656SOL     OW 8591   4.594   0.233   2.376 -0.3981 -0.1525 -0.3544
 2656SOL    HW1 8592   4.518   0.172   2.396  0.7775 -1.8637 -0.8685
 2656SOL    HW2 8593   4.680   0.190   2.404  0.3143  2.5944  2.2001
 2657SOL     OW 8594   3.184   4.461   4.590 -0.2913 -0.2062  0.0947
 2657SOL    HW1 8595   3.097   4.507   4.575  0.1328  1.1275  1.4744
 2657SOL    HW2 8596   3.171   4.362   4.583 -1.6136  0.0172 -1.0323
 2658SOL     OW 8597   2.107   1.627   4.222  0.3560  0.8630 -0.6577
 2658SOL    HW1 8598   2.126   1.597   4.315 -0.8061  3.9918  0.7128
 2658SOL    HW2 8599   2.121   1.550   4.159 -0.6319 -1.8954  2.2370
 2659SOL     OW 8600   3.616   4.199   0.235 -0.6963  0.1473 -0.4059
 2659SOL    HW1 8601   3.651   4.109   0.261  0.2093  0.6155  0.0532
 2659SOL    HW2 8602   3.647   4.222   0.143 -0.7773  0.0676 -0.4534
 2660SOL     OW 8603   4.615   4.869   3.743 -0.1238  0.0596  0.6701
 2660SOL    HW1 8604   4.703   4.905   3.711 -0.2140  0.6559  1.0672
 2660SOL    HW2 8605   4.541   4.926   3.709 -0.3442 -0.3347  0.4900
 2661SOL     OW 8606   1.951   1.577   1.828  1.0635 -0.6469  1.3242
 2661SOL    HW1 8607   1.907   1.621   1.750  0.1201 -2.5996  0.6943
 2661SOL    HW2 8608   1.972   1.646   1.897  0.5724  0.9133 -0.0130
 2662SOL     OW 8609   4.954   0.336   2.657  1.3966 -0.3032 -0.6307
 2662SOL    HW1 8610   4.959   0.427   2.614 -0.9113  0.9090  1.4083
 2662SOL    HW2 8611   4.864   0.325   2.701  1.2067 -3.9919 -1.5999
 2663SOL     OW 8612   3.037   2.477   0.140 -0.3942 -1.1049  0.1478
 2663SOL    HW1 8613   3.113   2.418   0.165 -0.0313 -0.7599 -0.1316
 2663SOL    HW2 8614   3.055   2.571   0.170 -1.2146 -1.2295  1.0856
 2664SOL     OW 8615   4.912   0.573   1.892  0.0859  0.2223 -0.5033
 2664SOL    HW1 8616   4.916   0.672   1.879  0.1504  0.8114  3.1659
 2664SOL    HW2 8617   4.986   0.530   1.841  0.0885  1.9900 -2.1332
 2665SOL     OW 8618   0.487   1.774   2.616 -0.3232  0.9249 -0.0855
 2665SOL    HW1 8619   0.484   1.695   2.678  0.4632 -0.2772 -1.5058
 2665SOL    HW2 8620   0.506   1.857   2.668  6.1693 -0.6593  0.9165
 2666SOL     OW 8621   1.382   0.156   2.817 -0.6545  0.5067 -0.3074
 2666SOL    HW1 8622   1.464   0.101   2.803  0.4800  1.6852  1.2147
 2666SOL    HW2 8623   1.321   0.147   2.738 -0.1502 -2.1848 -0.4797
 2667SOL     OW 8624   4.033   1.838   3.789  0.8161  0.7038 -0.4012
 2667SOL    HW1 8625   3.982   1.812   3.871  0.8874  0.4205 -0.4436
 2667SOL    HW2 8626   4.005   1.780   3.712  1.6356  0.1261 -0.2820
 2668SOL     OW 8627   3.225   4.784   4.834 -0.1822  0.2230 -0.0334
 2668SOL    HW1 8628   3.176   4.766   4.749  1.5820  2.9872 -1.8246
 2668SOL    HW2 8629   3.320   4.753   4.824  0.3967  1.7667  0.3341
 2669SOL     OW 8630   2.614   0.319   1.534  0.4390 -0.1880  0.5854
 2669SOL    HW1 8631   2.537   0.277   1.486 -0.1675  1.4231  0.0805
 2669SOL    HW2 8632   2.670   0.372   1.470  0.9183  0.1502  1.2624
 2670SOL     OW 8633   4.416   4.232   1.211 -0.1271  0.0070 -0.8067
 2670SOL    HW1 8634   4.343   4.295   1.184 -1.3015 -1.0490 -0.2309
 2670SOL    HW2 8635   4.462   4.197   1.130  1.0758  2.1503 -1.1169
 2671SOL     OW 8636   0.234   2.866   4.074  0.0994  0.6411  0.6433
 2671SOL    HW1 8637   0.185   2.874   4.161 -0.0895  3.4566  0.3823
 2671SOL    HW2 8638   0.172   2.829   4.004  0.4290 -2.2428  1.7394
 2672SOL     OW 8639   1.078   0.246   4.879 -0.9882  0.4573  0.5682
 2672SOL    HW1 8640   1.172   0.275   4.860 -1.2052 -0.1143 -1.6978
 2672SOL    HW2 8641   1.072   0.211   4.972  0.6264  2.1256  1.3618
 2673SOL     OW 8642   3.506   3.985   3.405 -0.3024 -0.1485  0.4583
 2673SOL    HW1 8643   3.487   3.973   3.308  0.0426 -3.0263  0.6839
 2673SOL    HW2 8644   3.600   3.957   3.425 -0.6609 -0.5131  1.7544
 2674SOL     OW 8645   1.535   1.331   1.945  1.1607 -0.4118  0.3221
 2674SOL    HW1 8646   1.507   1.406   1.884  0.9575  1.2960  2.4166
 2674SOL    HW2 8647   1.457   1.270   1.961  0.1007  1.2523  1.8010
 2675SOL     OW 8648   4.401   4.148   3.098 -0.0323  0.3396  0.3694
 2675SOL    HW1 8649   4.381   4.131   3.002 -2.4226  0.3370  0.8075
 2675SOL    HW2 8650   4.450   4.071   3.137 -2.1823 -1.3325 -0.0314
 2676SOL     OW 8651   1.744   3.164   2.482 -0.1370  0.3598  0.3585
 2676SOL    HW1 8652   1.660   3.210   2.510  0.7458  1.5512  1.1507
 2676SOL    HW2 8653   1.822   3.206   2.528  0.8289 -1.2536  0.2691
 2677SOL     OW 8654   4.068   4.601   3.695  0.0851  0.5224 -0.5172
 2677SOL    HW1 8655   4.055   4.675   3.628 -1.1534  0.3382 -0.5004
 2677SOL    HW2 8656   4.165   4.582   3.704  0.3206  0.9405 -1.8507
 2678SOL     OW 8657   2.451   3.881   0.469  0.6681  0.9478  0.8559
 2678SOL    HW1 8658   2.387   3.946   0.510 -3.0339 -1.6384 -0.3126
 2678SOL    HW2 8659   2.489   3.823   0.541  0.6958  1.6661  1.4371
 2679SOL     OW 8660   0.126   2.534   4.660 -0.3496 -0.2042 -0.5271
 2679SOL    HW1 8661   0.040   2.545   4.711  0.4685  2.0065  0.5392
 2679SOL    HW2 8662   0.106   2.506   4.567 -2.0861 -1.6711  0.2110
 2680SOL     OW 8663   3.141   0.200   4.171  0.2676 -1.0822 -0.3349
 2680SOL    HW1 8664   3.079   0.196   4.092  0.1205 -0.8669 -0.2310
 2680SOL    HW2 8665   3.122   0.123   4.232 -0.5304 -0.5131  0.1607
 2681SOL     OW 8666   4.061   3.893   0.502  0.5287  0.3486  0.0870
 2681SOL    HW1 8667   4.099   3.801   0.506 -0.4516 -0.1150 -0.7295
 2681SOL    HW2 8668   4.017   3.907   0.413 -1.9980  0.4915  1.2570
 2682SOL     OW 8669   3.975   2.867   4.001  0.1056  0.1304 -0.4629
 2682SOL    HW1 8670   3.975   2.772   4.031 -1.0458  0.4389  0.6000
 2682SOL    HW2 8671   4.030   2.922   4.066 -2.8781  0.9051  1.6225
 2683SOL     OW 8672   1.432   3.884   4.799 -0.0508 -0.3984 -0.1011
 2683SOL    HW1 8673   1.515   3.835   4.772 -0.0779 -0.2324 -0.5025
 2683SOL    HW2 8674   1.455   3.979   4.820 -0.6273  0.7420 -3.9104
 2684SOL     OW 8675   0.884   1.701   0.479 -0.1221  0.6751  0.1689
 2684SOL    HW1 8676   0.819   1.635   0.438 -2.2635  2.3700  0.6393
 2684SOL    HW2 8677   0.888   1.783   0.422  1.2024  0.8342  0.4693
 2685SOL     OW 8678   2.057   3.374   2.878 -0.1811  0.2970  0.6540
 2685SOL    HW1 8679   2.066   3.431   2.796 -1.4847 -2.8187 -1.8774
 2685SOL    HW2 8680   2.137   3.386   2.936  0.7090  2.8292 -0.9245
 2686SOL     OW 8681   4.020   1.232   1.758  0.2280  0.0097 -0.5393
 2686SOL    HW1 8682   4.014   1.141   1.717  1.9311 -0.4862  0.2369
 2686SOL    HW2 8683   4.107   1.242   1.806 -1.1222  1.0185  1.8742
 2687SOL     OW 8684   3.806   1.100   0.087 -0.3909  0.2072  0.1813
 2687SOL    HW1 8685   3.819   1.080  -0.010 -0.2897 -0.4906  0.3321
 2687SOL    HW2 8686   3.773   1.194   0.098 -1.8831 -0.1861 -0.6290
 2688SOL     OW 8687   3.631   0.877   0.211  0.3790  0.0608  0.3014
 2688SOL    HW1 8688   3.681   0.952   0.169 -1.6648  1.9648  1.1246
 2688SOL    HW2 8689   3.665   0.790   0.174  2.8415  1.3182 -0.6334
 2689SOL     OW 8690   0.557   3.914   1.789 -0.0431 -0.0198  0.3447
 2689SOL    HW1 8691   0.606   3.860   1.720 -1.9681  0.6708 -1.6548
 2689SOL    HW2 8692   0.474   3.952   1.749 -1.2523  0.4251  3.0924
 2690SOL     OW 8693   3.130   4.957   2.478 -0.3598 -0.5542  0.1097
 2690SOL    HW1 8694   3.053   4.909   2.520  0.6442 -1.2976  1.1642
 2690SOL    HW2 8695   3.132   5.052   2.510 -0.1844 -0.8477  0.9956
 2691SOL     OW 8696   3.769   0.531   2.123  0.1571  0.7552  0.2344
 2691SOL    HW1 8697   3.855   0.493   2.089  0.0529  1.7534 -1.2700
 2691SOL    HW2 8698   3.709   0.458   2.153  0.4702 -0.1750 -1.3073
 2692SOL     OW 8699   0.744   1.011   4.870 -0.7444 -0.3985  0.2485
 2692SOL    HW1 8700   0.831   1.015   4.919  0.2152 -1.2228 -1.2926
 2692SOL    HW2 8701   0.725   0.917   4.843 -0.7036  0.1170 -1.7799
 2693SOL     OW 8702   1.485   0.707   1.137 -0.1931 -0.0596  0.3504
 2693SOL    HW1 8703   1.492   0.638   1.065  0.8496  0.0049  0.3692
 2693SOL    HW2 8704   1.573   0.713   1.185 -1.1651 -0.8736  2.3338
 2694SOL     OW 8705   3.832   2.728   2.234 -0.5529  0.0256  0.1488
 2694SOL    HW1 8706   3.886   2.688   2.159 -0.6436 -0.8233  0.5244
 2694SOL    HW2 8707   3.819   2.826   2.217 -0.8361 -0.2132 -1.0985
 2695SOL     OW 8708   2.111   2.169   2.830 -0.3323 -0.0524  0.4643
 2695SOL    HW1 8709   2.068   2.215   2.908  1.2361 -1.3514  2.1945
 2695SOL    HW2 8710   2.208   2.195   2.825  0.1991 -1.8509  0.5268
 2696SOL     OW 8711   1.442   0.354   1.171 -0.2802 -0.4924  0.4025
 2696SOL    HW1 8712   1.394   0.266   1.178 -1.9982  0.4815  5.5336
 2696SOL    HW2 8713   1.378   0.428   1.190  2.3382  1.2453  3.3701
 2697SOL     OW 8714   1.250   4.299   2.098  0.1253 -0.2781  0.1292
 2697SOL    HW1 8715   1.163   4.273   2.055 -0.3953  2.8358 -0.9634
 2697SOL    HW2 8716   1.311   4.337   2.029  1.9648 -1.3119  1.1060
 2698SOL     OW 8717   3.252   0.520   3.923 -0.5900  0.3918  0.1175
 2698SOL    HW1 8718   3.335   0.571   3.901 -0.0294 -1.7176 -3.4934
 2698SOL    HW2 8719   3.190   0.522   3.844 -4.2632  2.1315  2.7629
 2699SOL     OW 8720   2.666   4.629   4.433 -0.5399 -1.0943  0.1653
 2699SOL    HW1 8721   2.668   4.550   4.495  2.4949 -1.0940  0.2089
 2699SOL    HW2 8722   2.655   4.713   4.486  1.1458 -1.1629  0.6718
 2700SOL     OW 8723   1.266   3.905   3.947 -0.0449 -0.1670 -0.1118
 2700SOL    HW1 8724   1.342   3.896   3.883 -2.0236 -4.9534 -2.2808
 2700SOL    HW2 8725   1.290   3.863   4.035  0.0166 -1.3309 -0.6664
 2701SOL     OW 8726   2.684   4.582   3.349 -0.2125  0.4574  0.2376
 2701SOL    HW1 8727   2.653   4.522   3.423 -0.0844  2.0681  1.6877
 2701SOL    HW2 8728   2.697   4.675   3.386  0.5027  1.1653 -1.6876
 2702SOL     OW 8729   1.447   4.170   3.790 -1.4886  0.6453 -0.2078
 2702SOL    HW1 8730   1.536   4.149   3.829 -1.3485  2.6959  0.7052
 2702SOL    HW2 8731   1.418   4.095   3.731 -0.2129 -1.0854  1.2489
 2703SOL     OW 8732   4.793   3.826   4.084  0.6850  0.1342  0.5115
 2703SOL    HW1 8733   4.788   3.916   4.041  2.5362 -0.1366 -0.3409
 2703SOL    HW2 8734   4.715   3.771   4.055  1.8499 -0.0425 -2.6357
 2704SOL     OW 8735   1.036   4.017   4.535 -0.0357 -0.5954 -0.0235
 2704SOL    HW1 8736   1.006   3.938   4.481 -0.5976 -0.8104  0.5842
 2704SOL    HW2 8737   0.957   4.059   4.579  0.5888 -1.6447  2.2664
 2705SOL     OW 8738   0.483   4.677   4.560  0.6406  0.2729  0.1174
 2705SOL    HW1 8739   0.431   4.628   4.630  0.0498  0.2779 -0.3078
 2705SOL    HW2 8740   0.422   4.699   4.483  1.8669 -2.0855 -1.6419
 2706SOL     OW 8741   0.805   4.754   2.510  1.1808 -0.1330  0.5665
 2706SOL    HW1 8742   0.775   4.812   2.586  1.5995  2.2449 -0.9664
 2706SOL    HW2 8743   0.725   4.711   2.468  0.9100 -1.1458  2.0503
 2707SOL     OW 8744   2.298   0.912   3.098  1.1729 -0.1212 -0.1810
 2707SOL    HW1 8745   2.231   0.981   3.071  0.8961 -0.8166 -1.3350
 2707SOL    HW2 8746   2.381   0.957   3.129  0.0477  0.7691  1.7164
 2708SOL     OW 8747   1.646   4.234   0.085 -0.1921 -0.1648  0.2616
 2708SOL    HW1 8748   1.692   4.316   0.052  0.2373 -2.3134 -5.6803
 2708SOL    HW2 8749   1.712   4.173   0.127  0.8528  0.0408 -1.0036
 2709SOL     OW 8750   3.759   4.678   4.993 -0.0116  0.0455  0.3375
 2709SOL    HW1 8751   3.729   4.621   4.916  1.6301 -0.5743  0.0941
 2709SOL    HW2 8752   3.806   4.620   5.060  0.8059  0.9603  0.5795
 2710SOL     OW 8753   0.185   3.161   1.006  1.0732 -0.7014 -0.4007
 2710SOL    HW1 8754   0.171   3.069   1.044  0.5220  0.0929  1.4794
 2710SOL    HW2 8755   0.097   3.208   1.000  1.4837  0.1125 -0.1915
 2711SOL     OW 8756   1.345   3.945   2.880  0.5489 -0.0847  1.3698
 2711SOL    HW1 8757   1.390   4.013   2.938  3.7878  0.0539 -0.9801
 2711SOL    HW2 8758   1.315   3.989   2.795  2.6447 -1.4185 -0.1637
 2712SOL     OW 8759   2.701   2.372   1.331 -0.6705 -0.5236 -0.0491
 2712SOL    HW1 8760   2.683   2.320   1.415 -1.2496  0.7737  0.6441
 2712SOL    HW2 8761   2.792   2.413   1.336 -0.1993 -1.4598 -0.6121
 2713SOL     OW 8762   2.683   3.716   4.761 -0.7373 -0.2525 -0.0218
 2713SOL    HW1 8763   2.745   3.766   4.821 -0.4826 -0.5457 -0.0367
 2713SOL    HW2 8764   2.700   3.742   4.666 -2.9292  2.2220  0.1593
 2714SOL     OW 8765   2.864   2.070   1.011 -0.2001  0.1481  0.4438
 2714SOL    HW1 8766   2.851   2.071   1.110 -3.1656  2.7984  0.1816
 2714SOL    HW2 8767   2.917   2.150   0.983 -0.5554  0.1729 -0.1968
 2715SOL     OW 8768   4.271   2.681   4.657  0.2286 -0.7070  0.3107
 2715SOL    HW1 8769   4.268   2.751   4.586  1.7685  1.6770  2.4045
 2715SOL    HW2 8770   4.270   2.590   4.615 -3.8681  0.3602 -2.4804
 2716SOL     OW 8771   0.483   2.719   3.679 -0.6007  0.1476  0.1621
 2716SOL    HW1 8772   0.503   2.781   3.754  3.9872 -1.6001  0.7264
 2716SOL    HW2 8773   0.414   2.652   3.707  1.5159 -0.9356  3.2598
 2717SOL     OW 8774   2.200   2.322   2.210 -0.1946  0.1870  0.6184
 2717SOL    HW1 8775   2.189   2.276   2.298 -2.1766  1.8642  1.3212
 2717SOL    HW2 8776   2.282   2.287   2.164  1.2803 -0.2887  3.3992
 2718SOL     OW 8777   3.457   3.515   3.376  0.6376 -0.2663 -0.1644
 2718SOL    HW1 8778   3.382   3.451   3.396  1.3087 -0.4989  1.8759
 2718SOL    HW2 8779   3.451   3.594   3.437  2.3660 -0.5784  0.4829
 2719SOL     OW 8780   1.286   0.114   1.849  0.1761 -0.2536 -0.2654
 2719SOL    HW1 8781   1.289   0.067   1.761 -1.0002  0.1714 -0.5545
 2719SOL    HW2 8782   1.239   0.202   1.838  2.9401  1.3856  0.1073
 2720SOL     OW 8783   3.751   1.898   2.430  0.2368 -0.5658  0.4221
 2720SOL    HW1 8784   3.679   1.963   2.455  0.0470  0.1943 -1.8726
 2720SOL    HW2 8785   3.837   1.948   2.416  0.6950 -1.1744  0.9735
 2721SOL     OW 8786   2.031   0.463   3.987  0.2224  0.4141 -0.3034
 2721SOL    HW1 8787   1.945   0.461   4.038 -0.4647  1.2171 -1.3649
 2721SOL    HW2 8788   2.104   0.498   4.045 -0.1340 -0.3695  0.6438
 2722SOL     OW 8789   0.584   2.469   1.323 -0.9712  0.5497  0.0419
 2722SOL    HW1 8790   0.600   2.371   1.317  0.8491  0.7928  0.3973
 2722SOL    HW2 8791   0.582   2.497   1.419 -2.8421  0.7008  0.0082
 2723SOL     OW 8792   4.325   4.419   1.968  0.0992 -0.2867  0.2265
 2723SOL    HW1 8793   4.330   4.322   1.991  1.5539 -0.1150  0.7148
 2723SOL    HW2 8794   4.380   4.437   1.886 -0.4642  0.0665 -0.0800
 2724SOL     OW 8795   3.649   0.336   3.537 -0.2556 -0.4688  0.3162
 2724SOL    HW1 8796   3.645   0.325   3.438  1.2908  0.3011  0.1463
 2724SOL    HW2 8797   3.581   0.276   3.580  0.0317 -1.8789 -1.1238
 2725SOL     OW 8798   2.493   1.550   4.472  0.0370  0.2333  1.0400
 2725SOL    HW1 8799   2.515   1.619   4.403 -0.2587  2.5264  3.1376
 2725SOL    HW2 8800   2.423   1.488   4.435 -1.7140  2.6956 -0.0387
 2726SOL     OW 8801   4.590   2.891   1.884  0.6801 -0.2103 -0.2413
 2726SOL    HW1 8802   4.629   2.892   1.976  0.3854 -0.7506 -0.1043
 2726SOL    HW2 8803   4.627   2.813   1.832 -0.4990 -0.9810  0.0297
 2727SOL     OW 8804   2.754   3.309   0.084  0.7924  0.4308 -0.3071
 2727SOL    HW1 8805   2.732   3.258   0.001  2.5648 -1.6152  0.4066
 2727SOL    HW2 8806   2.689   3.285   0.156  0.1857  1.0350 -0.6430
 2728SOL     OW 8807   3.965   2.390   0.581  0.0915  0.5913 -0.5023
 2728SOL    HW1 8808   3.969   2.428   0.488 -1.1161 -2.2965 -1.8636
 2728SOL    HW2 8809   4.056   2.391   0.621  0.8183  1.0667 -2.0784
 2729SOL     OW 8810   2.903   2.082   1.303  0.3194 -0.3091 -0.5490
 2729SOL    HW1 8811   2.832   2.152   1.319 -0.5527 -1.0345 -1.1312
 2729SOL    HW2 8812   2.990   2.115   1.338 -0.1426  0.9338 -0.4962
 2730SOL     OW 8813   1.553   3.745   1.603  0.4073 -0.1030  0.1808
 2730SOL    HW1 8814   1.610   3.695   1.669  1.3996 -0.4666 -0.9252
 2730SOL    HW2 8815   1.608   3.769   1.523 -0.6601  0.7486 -0.3205
 2731SOL     OW 8816   2.119   1.431   2.097 -0.2514  0.8103  0.7725
 2731SOL    HW1 8817   2.121   1.453   1.999 -1.0859  2.0708  1.0164
 2731SOL    HW2 8818   2.102   1.333   2.108  0.5592  0.5268 -0.3468
 2732SOL     OW 8819   0.171   3.582   0.264 -0.2615 -0.2338 -0.0565
 2732SOL    HW1 8820   0.166   3.486   0.234  0.1847 -0.4887  0.6388
 2732SOL    HW2 8821   0.242   3.629   0.213  2.3181 -1.3462  2.2525
 2733SOL     OW 8822   4.256   2.037   2.488  0.0690  0.6062 -0.0312
 2733SOL    HW1 8823   4.264   2.136   2.501  0.8780  0.6710 -0.9431
 2733SOL    HW2 8824   4.293   2.012   2.399  0.1978 -0.5656  0.3382
 2734SOL     OW 8825   4.277   3.672   0.745 -0.5199  0.4750 -0.5903
 2734SOL    HW1 8826   4.190   3.712   0.772 -1.1159 -0.5048 -0.9896
 2734SOL    HW2 8827   4.351   3.711   0.799 -1.1879  1.4352 -0.3610
 2735SOL     OW 8828   1.023   4.012   0.919  0.3437 -1.2541  0.2123
 2735SOL    HW1 8829   0.924   4.000   0.922  0.3513 -1.2605  0.4868
 2735SOL    HW2 8830   1.055   4.006   0.824 -0.1939  0.8801 -0.1666
 2736SOL     OW 8831   2.100   0.113   2.167  0.4451 -0.1862  0.2442
 2736SOL    HW1 8832   2.115   0.129   2.070  1.4019  1.1403  0.5822
 2736SOL    HW2 8833   2.096   0.015   2.185  1.4389 -0.4645 -0.9567
 2737SOL     OW 8834   3.239   4.542   1.785 -0.3236 -0.1865  0.6588
 2737SOL    HW1 8835   3.198   4.461   1.828  1.2317 -1.5931 -0.3917
 2737SOL    HW2 8836   3.331   4.555   1.821  1.2185 -1.6839 -2.3813
 2738SOL     OW 8837   3.439   3.886   3.783  0.3805 -0.3493 -1.0290
 2738SOL    HW1 8838   3.455   3.801   3.833 -1.4818  0.7536  1.7026
 2738SOL    HW2 8839   3.523   3.940   3.781  0.2147  0.3185  2.6743
 2739SOL     OW 8840   0.082   4.526   3.093  0.1318  0.1279 -0.3889
 2739SOL    HW1 8841   0.008   4.559   3.033  0.4816  0.8929 -0.4100
 2739SOL    HW2 8842   0.165   4.514   3.039  0.6991  1.7010  0.0857
 2740SOL     OW 8843   0.004   2.377   4.345 -0.2910  0.3392 -0.5461
 2740SOL    HW1 8844   0.048   2.465   4.325 -1.3156  0.4858 -2.3082
 2740SOL    HW2 8845  -0.063   2.356   4.274 -2.2833 -0.4132  1.4540
 2741SOL     OW 8846   2.551   4.957   1.231  0.0271 -0.8058 -0.3200
 2741SOL    HW1 8847   2.558   4.931   1.135  0.5951 -0.8336 -0.2773
 2741SOL    HW2 8848   2.636   4.933   1.278  1.3563  2.6117 -0.6450
 2742SOL     OW 8849   3.216   3.510   2.927  0.3117 -0.2740 -0.2324
 2742SOL    HW1 8850   3.176   3.458   2.852  0.6390 -1.2594  0.2612
 2742SOL    HW2 8851   3.203   3.461   3.013 -1.8688  1.7870  0.7173
 2743SOL     OW 8852   0.668   3.727   1.639  0.7925 -0.6235  0.1546
 2743SOL    HW1 8853   0.739   3.658   1.623 -0.5794 -1.5078 -2.9459
 2743SOL    HW2 8854   0.604   3.727   1.562 -0.5523  2.6293  1.1035
 2744SOL     OW 8855   4.820   1.330   2.676 -0.5209 -0.5312  0.2025
 2744SOL    HW1 8856   4.756   1.377   2.736  0.0508  0.2025  0.2431
 2744SOL    HW2 8857   4.829   1.234   2.705 -0.2058 -0.1728  1.3327
 2745SOL     OW 8858   4.652   4.381   4.927 -0.1465  0.0916 -0.2873
 2745SOL    HW1 8859   4.581   4.415   4.866 -0.6609  0.9081  0.7190
 2745SOL    HW2 8860   4.641   4.424   5.017  3.7990  3.1505 -1.0224
 2746SOL     OW 8861   2.926   2.915   3.800 -0.4787 -0.0091 -0.5060
 2746SOL    HW1 8862   2.923   2.835   3.860 -2.2207 -0.1335 -0.7041
 2746SOL    HW2 8863   3.011   2.966   3.816 -0.0407 -1.0748  0.6946
 2747SOL     OW 8864   1.103   0.511   3.277 -0.4492 -0.4257 -0.2096
 2747SOL    HW1 8865   1.165   0.485   3.351  0.3088  1.6254 -0.0418
 2747SOL    HW2 8866   1.015   0.537   3.316  0.5839  2.7229  0.3698
 2748SOL     OW 8867   4.154   4.652   2.543  0.0227  0.2292  0.1860
 2748SOL    HW1 8868   4.178   4.555   2.534  0.9031  0.0213  3.4652
 2748SOL    HW2 8869   4.075   4.660   2.603  0.4521  1.5592  0.5935
 2749SOL     OW 8870   3.101   3.228   0.025  0.0249 -0.5452  0.3480
 2749SOL    HW1 8871   3.021   3.276   0.061 -1.8412 -1.0955 -2.6286
 2749SOL    HW2 8872   3.162   3.293  -0.020 -0.8477 -0.4947 -0.8290
 2750SOL     OW 8873   4.129   0.180   2.512 -0.6023 -0.2857  0.4348
 2750SOL    HW1 8874   4.054   0.199   2.575 -1.1445 -0.3206 -0.1858
 2750SOL    HW2 8875   4.102   0.205   2.419 -0.8064 -2.6354 -0.2023
 2751SOL     OW 8876   3.046   1.298   4.720  0.5994  0.1465  0.2140
 2751SOL    HW1 8877   3.050   1.388   4.676 -4.6026  0.4193 -0.3324
 2751SOL    HW2 8878   3.071   1.227   4.654  0.8386  0.9572 -0.5868
 2752SOL     OW 8879   0.221   1.693   2.885 -0.3611  0.0471  0.0863
 2752SOL    HW1 8880   0.230   1.706   2.786 -0.3068  0.8308  0.1935
 2752SOL    HW2 8881   0.130   1.657   2.905  0.0379 -1.2811 -0.3517
 2753SOL     OW 8882   1.652   2.939   3.799  0.0465 -0.5115 -0.3198
 2753SOL    HW1 8883   1.718   2.901   3.863  3.0423  2.4170 -1.4066
 2753SOL    HW2 8884   1.658   2.890   3.712  3.4835  1.7075 -1.5365
 2754SOL     OW 8885   4.171   3.435   3.418 -0.0467 -0.3074  0.1491
 2754SOL    HW1 8886   4.101   3.402   3.355  1.5411 -1.4860 -1.0655
 2754SOL    HW2 8887   4.133   3.510   3.473 -2.3911 -1.1957 -0.1090
 2755SOL     OW 8888   1.338   0.844   4.251  0.4885  0.1315  0.4050
 2755SOL    HW1 8889   1.321   0.877   4.158  0.0155 -1.1089  0.0345
 2755SOL    HW2 8890   1.383   0.755   4.247  1.7003  0.6793  1.3798
 2756SOL     OW 8891   1.134   0.255   2.177 -0.4100 -0.2712 -0.1104
 2756SOL    HW1 8892   1.099   0.166   2.204 -2.4066  0.6654  0.5789
 2756SOL    HW2 8893   1.211   0.243   2.113 -0.0141 -2.4479  0.6978
 2757SOL     OW 8894   1.287   0.859   3.981 -0.1206 -0.3760 -0.0687
 2757SOL    HW1 8895   1.236   0.776   3.958 -0.1924 -0.1421 -0.7804
 2757SOL    HW2 8896   1.337   0.891   3.900 -2.7494  2.1844 -0.8701
 2758SOL     OW 8897   1.432   2.045   2.362 -0.0504  0.4952  0.1875
 2758SOL    HW1 8898   1.526   2.036   2.396  0.0562 -1.6655 -0.5188
 2758SOL    HW2 8899   1.433   2.087   2.271 -0.0586  3.0935  1.3085
 2759SOL     OW 8900   2.952   4.557   1.195  1.2700  0.5095 -0.0514
 2759SOL    HW1 8901   2.938   4.596   1.104  0.5398 -0.5442 -0.4100
 2759SOL    HW2 8902   3.009   4.618   1.249  3.5034  0.2023 -1.8997
 2760SOL     OW 8903   2.708   0.167   0.548  0.7322  0.1884  0.2891
 2760SOL    HW1 8904   2.772   0.234   0.510  2.1896 -0.8893  0.7411
 2760SOL    HW2 8905   2.752   0.077   0.550  0.7161  0.0896  4.2805
 2761SOL     OW 8906   3.602   1.486   3.786  0.2460 -0.0794  0.1800
 2761SOL    HW1 8907   3.512   1.503   3.826  0.7396  1.0632  0.8582
 2761SOL    HW2 8908   3.592   1.443   3.697 -0.9013 -2.2062  1.2607
 2762SOL     OW 8909   1.339   3.917   2.310  0.0034  0.6396  0.1508
 2762SOL    HW1 8910   1.386   3.860   2.242 -0.5443 -0.2315  0.4883
 2762SOL    HW2 8911   1.243   3.890   2.316  0.0989  0.5198  1.4483
 2763SOL     OW 8912   3.068   2.643   3.832 -0.3975  0.5509 -0.1896
 2763SOL    HW1 8913   3.095   2.686   3.745  0.6694 -0.8308 -0.5783
 2763SOL    HW2 8914   3.140   2.660   3.900 -1.6864  2.4938  0.7767
 2764SOL     OW 8915   1.233   2.360   3.825 -0.4988  0.4768 -0.5126
 2764SOL    HW1 8916   1.314   2.405   3.789 -1.2907 -0.5477 -3.9483
 2764SOL    HW2 8917   1.153   2.418   3.811 -0.8127  0.1149 -0.2668
 2765SOL     OW 8918   4.346   4.213   1.480  0.0781 -0.6147  0.3036
 2765SOL    HW1 8919   4.368   4.212   1.382 -0.7919  1.9845  0.0208
 2765SOL    HW2 8920   4.250   4.188   1.492 -0.1793  0.3500  0.3399
 2766SOL     OW 8921   0.393   4.016   1.245  0.5491 -0.4126 -0.5693
 2766SOL    HW1 8922   0.486   3.982   1.258  1.2012  1.0373 -1.1780
 2766SOL    HW2 8923   0.348   4.026   1.333  2.8515  3.8205  0.3831
 2767SOL     OW 8924   1.523   0.061   3.557  0.6439  0.0019  0.5741
 2767SOL    HW1 8925   1.454   0.071   3.629  1.4419 -1.3625  1.5894
 2767SOL    HW2 8926   1.500  -0.017   3.499 -0.3517  1.4943 -1.1354
 2768SOL     OW 8927   0.307   2.477   2.556 -0.2547  0.5824 -0.3760
 2768SOL    HW1 8928   0.230   2.531   2.523 -0.4652  4.1125  4.6945
 2768SOL    HW2 8929   0.274   2.409   2.621  0.6403 -1.1229 -1.6459
 2769SOL     OW 8930   1.639   0.387   4.068  0.8582 -0.1280 -0.1642
 2769SOL    HW1 8931   1.557   0.377   4.125  1.0296 -1.8412 -0.1637
 2769SOL    HW2 8932   1.621   0.353   3.976  1.2662  0.4619 -0.4677
 2770SOL     OW 8933   3.213   3.571   2.069 -0.5490  0.4966  0.5845
 2770SOL    HW1 8934   3.115   3.568   2.090 -0.5961  0.6228  0.3782
 2770SOL    HW2 8935   3.242   3.483   2.032 -0.4019  0.1657  1.4643
 2771SOL     OW 8936   3.601   3.884   0.151 -0.1300 -0.7703  0.1938
 2771SOL    HW1 8937   3.576   3.791   0.178 -0.4369 -0.1533  2.2164
 2771SOL    HW2 8938   3.701   3.891   0.145 -0.1337 -1.6536 -1.8152
 2772SOL     OW 8939   2.663   0.210   1.154 -0.0598 -0.2765  0.3214
 2772SOL    HW1 8940   2.601   0.134   1.169 -0.6471 -0.6456 -3.1355
 2772SOL    HW2 8941   2.611   0.291   1.126  0.8368  0.2093  0.0114
 2773SOL     OW 8942   3.587   2.475   0.019 -0.7977 -0.0999  0.5013
 2773SOL    HW1 8943   3.492   2.462   0.047  0.1296 -2.5908  2.9664
 2773SOL    HW2 8944   3.648   2.429   0.084  1.9629 -1.4884 -2.7610
 2774SOL     OW 8945   4.698   0.022   1.159 -0.0899 -0.1649 -0.0565
 2774SOL    HW1 8946   4.635  -0.052   1.137  0.2293 -0.5872  0.4062
 2774SOL    HW2 8947   4.695   0.092   1.088 -1.1156 -0.1510 -0.0128
 2775SOL     OW 8948   3.192   1.946   3.005 -0.4601  0.1118  0.0516
 2775SOL    HW1 8949   3.124   1.896   3.059 -0.9742 -1.2917 -1.7848
 2775SOL    HW2 8950   3.145   2.006   2.940  0.1345  1.2478  0.6474
 2776SOL     OW 8951   4.393   2.631   3.951  1.0274  0.5288 -0.3655
 2776SOL    HW1 8952   4.329   2.557   3.969  0.4188  1.3830  1.1807
 2776SOL    HW2 8953   4.356   2.691   3.881 -1.0254  2.2471  2.0171
 2777SOL     OW 8954   2.408   1.316   4.077 -0.3151 -0.5627 -0.2173
 2777SOL    HW1 8955   2.396   1.304   4.175 -0.6103  2.1160  0.1376
 2777SOL    HW2 8956   2.491   1.369   4.060 -1.6591  1.3724 -1.1699
 2778SOL     OW 8957   1.285   3.753   1.603 -0.0417 -0.5751 -0.2733
 2778SOL    HW1 8958   1.279   3.844   1.562 -2.2756 -0.2539  0.5766
 2778SOL    HW2 8959   1.380   3.731   1.623  0.4236  2.8233  2.1023
 2779SOL     OW 8960   4.852   2.043   4.769 -0.2888 -1.4584  0.1093
 2779SOL    HW1 8961   4.795   1.960   4.771 -1.3230 -0.9457  4.8118
 2779SOL    HW2 8962   4.803   2.117   4.815  1.1708  1.4869 -2.7150
 2780SOL     OW 8963   4.658   0.769   0.463 -0.2506  0.0494 -0.1694
 2780SOL    HW1 8964   4.637   0.861   0.430 -4.3844 -0.5909  0.1027
 2780SOL    HW2 8965   4.697   0.775   0.555 -3.3374  1.6298  1.1970
 2781SOL     OW 8966   2.294   1.607   3.287  0.6741 -0.4594  0.3017
 2781SOL    HW1 8967   2.220   1.544   3.264 -0.0323 -0.1895  1.7325
 2781SOL    HW2 8968   2.372   1.590   3.227  0.0205 -1.7972 -0.2056
 2782SOL     OW 8969   3.321   2.563   3.335 -0.0461  0.3750 -0.8799
 2782SOL    HW1 8970   3.365   2.539   3.249 -2.5817  0.5220 -2.3389
 2782SOL    HW2 8971   3.372   2.636   3.381  0.7824  1.0796 -2.8311
 2783SOL     OW 8972   0.407   2.863   2.367  0.0116 -0.0107 -0.3283
 2783SOL    HW1 8973   0.403   2.957   2.402 -0.7237  0.6553 -2.0839
 2783SOL    HW2 8974   0.316   2.822   2.371  0.5757 -1.2184  1.7564
 2784SOL     OW 8975   1.724   2.963   2.942 -0.9861  0.5384  0.0268
 2784SOL    HW1 8976   1.789   2.976   2.867 -2.4448  0.5325 -1.2683
 2784SOL    HW2 8977   1.709   2.865   2.957 -0.6981  0.5393  0.3471
 2785SOL     OW 8978   4.802   3.954   3.114 -0.0957  0.0561  0.0442
 2785SOL    HW1 8979   4.882   3.925   3.062 -0.1986  0.9798 -0.6373
 2785SOL    HW2 8980   4.825   3.955   3.212  0.5940 -0.0713 -0.1130
 2786SOL     OW 8981   3.884   3.054   2.439  0.4608  0.0285  0.3069
 2786SOL    HW1 8982   3.936   3.033   2.522 -1.3862  1.8696  2.0277
 2786SOL    HW2 8983   3.928   3.128   2.390 -0.1370  1.1702  1.4369
 2787SOL     OW 8984   3.178   3.690   1.202 -0.6869 -0.2193 -0.2078
 2787SOL    HW1 8985   3.187   3.776   1.253 -1.4853 -0.4666  0.3672
 2787SOL    HW2 8986   3.086   3.684   1.163 -0.7143 -0.9228 -0.0480
 2788SOL     OW 8987   4.276   1.593   2.216  0.1751  0.3326 -0.2453
 2788SOL    HW1 8988   4.231   1.518   2.265  2.2274 -0.1414  1.0224
 2788SOL    HW2 8989   4.217   1.674   2.219 -0.5801 -0.2193  1.4309
 2789SOL     OW 8990   3.999   0.154   4.369  0.2543  0.5548  0.2829
 2789SOL    HW1 8991   3.915   0.207   4.357  0.1728  0.0518 -1.6597
 2789SOL    HW2 8992   3.997   0.109   4.459 -0.8065  1.7869  0.9253
 2790SOL     OW 8993   4.456   2.830   4.158  0.3966  0.2268 -0.4885
 2790SOL    HW1 8994   4.427   2.735   4.166 -0.5138  0.6383  2.3586
 2790SOL    HW2 8995   4.555   2.835   4.147  1.1923 -1.1344  4.1372
 2791SOL     OW 8996   2.533   1.518   3.177  0.4863  0.3130  0.1560
 2791SOL    HW1 8997   2.496   1.472   3.096 -0.4937 -0.9757  1.2989
 2791SOL    HW2 8998   2.632   1.499   3.183  0.1795 -1.3933  0.3938
 2792SOL     OW 8999   3.378   1.651   4.391 -0.2554  0.5083 -0.9048
 2792SOL    HW1 9000   3.445   1.677   4.321  1.9560  0.7890  1.1831
 2792SOL    HW2 9001   3.338   1.734   4.430 -0.1075  0.4253 -0.5764
 2793SOL     OW 9002   2.920   0.728   1.775 -0.4860  0.6031  0.4695
 2793SOL    HW1 9003   2.994   0.689   1.829  0.0853 -0.1337 -0.7796
 2793SOL    HW2 9004   2.953   0.810   1.728 -0.0306 -0.4083 -1.0605
 2794SOL     OW 9005   0.927   1.884   0.041  0.0163  0.5145 -0.0536
 2794SOL    HW1 9006   0.907   1.798  -0.006  1.1863  0.9694 -1.4860
 2794SOL    HW2 9007   0.934   1.957  -0.027 -0.6098  1.6748  1.1083
 2795SOL     OW 9008   4.416   1.218   1.025 -0.2234 -0.4571 -0.1000
 2795SOL    HW1 9009   4.468   1.216   0.940 -2.2126  1.6313 -1.4704
 2795SOL    HW2 9010   4.344   1.148   1.022  1.5586 -2.5005  1.2801
 2796SOL     OW 9011   2.394   3.797   4.546 -0.2685  0.3927 -0.2648
 2796SOL    HW1 9012   2.371   3.717   4.490 -2.8060  0.6982  0.2183
 2796SOL    HW2 9013   2.403   3.768   4.642 -0.7208  0.5945 -0.1579
 2797SOL     OW 9014   4.252   0.092   4.629 -0.5963  0.4107 -0.1699
 2797SOL    HW1 9015   4.208   0.002   4.622  1.2463 -0.5382 -0.0512
 2797SOL    HW2 9016   4.232   0.145   4.546 -2.6619  0.3919  0.2527
 2798SOL     OW 9017   1.385   2.950   3.910  0.5011  0.8592 -0.7053
 2798SOL    HW1 9018   1.303   2.975   3.859  0.8959  0.9298 -1.3255
 2798SOL    HW2 9019   1.466   2.972   3.855  0.8980 -0.7839 -0.8239
 2799SOL     OW 9020   2.673   0.102   3.494  0.2446  0.0917  0.0169
 2799SOL    HW1 9021   2.744   0.112   3.423 -1.2619 -1.8502 -1.9088
 2799SOL    HW2 9022   2.687   0.016   3.543  0.8564  1.0927  1.6702
 2800SOL     OW 9023   2.755   0.607   0.379  0.9989 -1.3592  0.0327
 2800SOL    HW1 9024   2.811   0.575   0.304 -1.2899  1.8750 -3.4274
 2800SOL    HW2 9025   2.664   0.567   0.372  0.3642 -0.0010  0.2107
 2801SOL     OW 9026   4.492   0.567   3.807  1.0485 -0.0046 -1.0773
 2801SOL    HW1 9027   4.470   0.579   3.903  2.8076 -1.1330 -0.4889
 2801SOL    HW2 9028   4.494   0.656   3.761  2.1303  0.7734  0.3972
 2802SOL     OW 9029   3.973   3.479   2.353 -0.0304  0.5846  0.3262
 2802SOL    HW1 9030   4.003   3.574   2.356 -0.6209  0.7494  1.4586
 2802SOL    HW2 9031   3.873   3.475   2.347 -0.1705  0.0783  2.2724
 2803SOL     OW 9032   3.385   3.242   2.847  0.2534  0.4979  0.7045
 2803SOL    HW1 9033   3.365   3.170   2.914  2.2148 -1.7019 -0.9123
 2803SOL    HW2 9034   3.442   3.312   2.889  0.4645 -0.2214  1.6474
 2804SOL     OW 9035   0.527   1.316   4.553  0.2782 -0.0901  0.1688
 2804SOL    HW1 9036   0.569   1.399   4.591  2.5524  0.6091 -3.3714
 2804SOL    HW2 9037   0.486   1.337   4.464 -0.7857 -2.4162  0.0385
 2805SOL     OW 9038   2.848   4.710   4.853 -0.4072  1.2401  0.1781
 2805SOL    HW1 9039   2.868   4.728   4.757  0.0458  0.9770  0.2149
 2805SOL    HW2 9040   2.924   4.658   4.893  0.0247  2.4548  1.0108
 2806SOL     OW 9041   2.577   3.524   4.911 -0.0050 -0.1474 -0.1690
 2806SOL    HW1 9042   2.625   3.563   4.833  0.6278  3.0244  1.6157
 2806SOL    HW2 9043   2.641   3.511   4.987 -1.0341 -0.8847  0.6117
 2807SOL     OW 9044   4.109   0.288   0.058 -0.1450 -0.8822 -0.4384
 2807SOL    HW1 9045   4.070   0.288   0.150  0.3931 -0.8291 -0.2064
 2807SOL    HW2 9046   4.072   0.211   0.006 -1.1242 -0.4137 -0.4783
 2808SOL     OW 9047   0.544   4.721   4.114 -0.3290 -0.7385  0.9236
 2808SOL    HW1 9048   0.637   4.756   4.103  0.5965 -2.7041  1.9474
 2808SOL    HW2 9049   0.545   4.640   4.172 -2.1527 -3.2121 -2.1927
 2809SOL     OW 9050   4.804   3.994   4.717  0.5909  0.9437 -0.2904
 2809SOL    HW1 9051   4.722   4.034   4.758  2.1784  2.9432  1.1119
 2809SOL    HW2 9052   4.788   3.896   4.700 -1.6695  1.0107  1.0224
 2810SOL     OW 9053   2.226   3.498   4.741  1.0281 -0.0477  0.1685
 2810SOL    HW1 9054   2.143   3.450   4.714  0.7589 -0.4899  1.6908
 2810SOL    HW2 9055   2.291   3.432   4.780  0.4946  0.8160  2.6774
 2811SOL     OW 9056   4.413   0.067   3.752 -0.6416 -0.0879  1.3359
 2811SOL    HW1 9057   4.337   0.118   3.711  1.1183 -1.1096 -4.0306
 2811SOL    HW2 9058   4.491   0.128   3.766  0.3556 -0.4005 -1.9317
 2812SOL     OW 9059   3.406   2.011   4.299  0.2537 -0.8212 -0.5876
 2812SOL    HW1 9060   3.333   2.037   4.362  0.4215 -2.9182  0.5714
 2812SOL    HW2 9061   3.365   1.973   4.216  0.0106 -0.7935 -0.4829
 2813SOL     OW 9062   2.758   0.526   4.742 -0.3276 -0.7001  0.0530
 2813SOL    HW1 9063   2.665   0.561   4.756 -0.1292  0.0200 -0.3807
 2813SOL    HW2 9064   2.794   0.562   4.656  0.8218  0.0152  0.8094
 2814SOL     OW 9065   1.105   3.178   1.012  0.7555 -0.3145 -0.2851
 2814SOL    HW1 9066   1.180   3.129   0.966 -0.4338 -0.8585 -1.7419
 2814SOL    HW2 9067   1.138   3.216   1.098  2.4778 -1.2579 -0.4755
 2815SOL     OW 9068   3.503   1.287   1.048 -0.3929  0.5808  0.6743
 2815SOL    HW1 9069   3.563   1.230   1.105 -0.1907 -1.3849 -1.3507
 2815SOL    HW2 9070   3.439   1.228   1.000  0.7234  1.8450 -2.6342
 2816SOL     OW 9071   1.065   1.216   2.076  0.0661  0.6727  0.4844
 2816SOL    HW1 9072   1.013   1.151   2.131  1.4595 -0.2235  0.7888
 2816SOL    HW2 9073   1.002   1.281   2.034 -1.4725 -1.3009 -0.4427
 2817SOL     OW 9074   4.323   4.571   3.713 -0.2285 -0.0469 -0.4950
 2817SOL    HW1 9075   4.349   4.634   3.640  1.5110 -2.1519 -1.7945
 2817SOL    HW2 9076   4.400   4.556   3.774  0.8316 -3.7474 -2.4382
 2818SOL     OW 9077   2.123   4.968   0.266 -0.6458  0.0954 -0.3291
 2818SOL    HW1 9078   2.193   5.036   0.287 -1.1016  0.9649 -1.4510
 2818SOL    HW2 9079   2.166   4.883   0.237 -0.0614 -0.0505  0.9253
 2819SOL     OW 9080   3.491   4.965   2.980 -0.3435 -0.7510  0.3545
 2819SOL    HW1 9081   3.472   5.061   2.961  0.8719 -0.8949 -1.9525
 2819SOL    HW2 9082   3.408   4.911   2.967 -0.6200 -0.2271 -0.0761
 2820SOL     OW 9083   1.490   0.891   1.613 -0.2468 -0.3705  0.1612
 2820SOL    HW1 9084   1.452   0.917   1.525  1.2005 -3.1073 -1.4166
 2820SOL    HW2 9085   1.418   0.854   1.671 -0.6090 -2.6977 -1.6355
 2821SOL     OW 9086   0.396   3.921   4.111  0.7923 -0.4787 -0.0855
 2821SOL    HW1 9087   0.472   3.920   4.177 -1.0273 -0.4022  2.1484
 2821SOL    HW2 9088   0.318   3.874   4.151 -0.4064 -0.4086 -2.2572
 2822SOL     OW 9089   3.244   1.300   2.921  0.4032 -0.6852  0.1662
 2822SOL    HW1 9090   3.206   1.366   2.857  0.5858 -0.7139  0.0296
 2822SOL    HW2 9091   3.329   1.263   2.885  0.9648 -0.0583  0.8254
 2823SOL     OW 9092   3.711   4.800   0.531 -0.1123  0.5770 -0.0690
 2823SOL    HW1 9093   3.617   4.773   0.551 -0.1128  0.0031 -0.8078
 2823SOL    HW2 9094   3.726   4.799   0.432  1.0128 -0.5528  0.0788
 2824SOL     OW 9095   1.204   3.050   2.035  0.0866 -0.2159 -0.4627
 2824SOL    HW1 9096   1.238   3.093   2.119 -5.1278  0.8723  1.5147
 2824SOL    HW2 9097   1.186   3.121   1.967 -1.0099 -0.2861 -0.2635
 2825SOL     OW 9098   4.850   0.401   1.508  0.8255  0.6921  0.0667
 2825SOL    HW1 9099   4.934   0.350   1.525  0.5950 -0.4952 -2.0056
 2825SOL    HW2 9100   4.786   0.388   1.585  0.8656 -2.0131 -0.2669
 2826SOL     OW 9101   3.013   1.105   3.354  0.2695  0.6696 -0.5858
 2826SOL    HW1 9102   3.072   1.138   3.280  1.5920  0.8968  0.5268
 2826SOL    HW2 9103   2.931   1.161   3.358 -0.0122  0.4168 -2.1085
 2827SOL     OW 9104   4.947   4.935   4.438  0.3795 -0.0144  0.0869
 2827SOL    HW1 9105   4.874   4.976   4.384 -0.4739 -2.0480 -0.4061
 2827SOL    HW2 9106   5.034   4.977   4.413 -0.1617  0.0490 -1.9172
 2828SOL     OW 9107   3.428   2.274   1.121 -0.1736 -0.5888 -0.1983
 2828SOL    HW1 9108   3.370   2.272   1.040  0.3367  1.3546 -0.6385
 2828SOL    HW2 9109   3.522   2.298   1.096 -0.7899  4.3567  1.2658
 2829SOL     OW 9110   1.746   0.885   1.542 -0.0910 -0.4706 -0.3950
 2829SOL    HW1 9111   1.791   0.944   1.610 -0.5305 -1.1739  0.5253
 2829SOL    HW2 9112   1.647   0.893   1.552 -0.3551  2.4000 -3.5291
 2830SOL     OW 9113   4.238   3.405   0.688 -0.3816  0.0967 -0.1574
 2830SOL    HW1 9114   4.290   3.370   0.610 -0.3100  0.6775 -0.3768
 2830SOL    HW2 9115   4.259   3.502   0.701 -1.8850  0.5134 -0.6504
 2831SOL     OW 9116   1.083   1.909   4.014 -0.7805  0.6200 -0.1760
 2831SOL    HW1 9117   1.017   1.873   4.079 -0.5743  0.4613 -0.0543
 2831SOL    HW2 9118   1.110   1.837   3.950 -0.2130  0.5035  0.1937
 2832SOL     OW 9119   0.302   2.338   4.032  0.7966  0.0691 -0.0741
 2832SOL    HW1 9120   0.310   2.302   4.125  0.2545 -0.4029 -0.2017
 2832SOL    HW2 9121   0.207   2.364   4.014 -0.3231 -4.4015 -2.0781
 2833SOL     OW 9122   3.105   2.181   0.480  0.4617 -0.1989  0.0688
 2833SOL    HW1 9123   3.153   2.210   0.563  0.4114 -2.5182  0.9829
 2833SOL    HW2 9124   3.058   2.094   0.497 -2.4691  0.9612 -1.3889
 2834SOL     OW 9125   4.307   2.347   1.771  0.1697  0.2231 -0.3792
 2834SOL    HW1 9126   4.385   2.395   1.811 -0.3466  0.0217  0.9474
 2834SOL    HW2 9127   4.336   2.298   1.689  1.5775 -0.2914  0.3807
 2835SOL     OW 9128   4.185   4.849   4.060 -0.1775  0.6279 -0.3658
 2835SOL    HW1 9129   4.202   4.893   3.971 -0.3454  2.2184  0.3420
 2835SOL    HW2 9130   4.268   4.853   4.116 -0.5779  1.2715  0.1975
 2836SOL     OW 9131   0.890   4.511   4.798 -0.5188 -0.4460 -0.5242
 2836SOL    HW1 9132   0.934   4.594   4.832 -1.7168 -0.8783  2.3301
 2836SOL    HW2 9133   0.903   4.505   4.699 -0.7938  3.3823 -0.9528
 2837SOL     OW 9134   0.565   4.717   1.623 -0.4823  0.9027  0.2989
 2837SOL    HW1 9135   0.645   4.725   1.682 -0.5701  1.6502  0.3212
 2837SOL    HW2 9136   0.549   4.803   1.576  2.0687 -0.7614 -4.1810
 2838SOL     OW 9137   1.145   3.776   4.413 -0.0197 -0.4267 -0.1233
 2838SOL    HW1 9138   1.064   3.718   4.409 -0.3527  0.0760 -1.5428
 2838SOL    HW2 9139   1.219   3.732   4.362 -0.2346  0.3085 -1.0916
 2839SOL     OW 9140   0.440   1.681   3.235  0.3875 -0.0902  1.2799
 2839SOL    HW1 9141   0.424   1.768   3.189 -1.7908 -1.0164  0.1046
 2839SOL    HW2 9142   0.439   1.695   3.334  0.1725  1.2429  1.0995
 2840SOL     OW 9143   0.336   4.386   1.550 -0.3946 -0.3786  1.0701
 2840SOL    HW1 9144   0.393   4.467   1.540 -1.2731  0.2990  1.3865
 2840SOL    HW2 9145   0.309   4.352   1.460  1.1944 -1.2342  0.8788
 2841SOL     OW 9146   4.511   4.547   0.478 -0.4122 -0.2362  0.5704
 2841SOL    HW1 9147   4.490   4.545   0.575 -1.2492 -1.8662  0.4074
 2841SOL    HW2 9148   4.433   4.586   0.428  0.0189  0.6067  0.5437
 2842SOL     OW 9149   0.199   2.605   4.408 -0.3882  0.1877 -0.6512
 2842SOL    HW1 9150   0.279   2.596   4.348  0.3804 -0.6262  0.4649
 2842SOL    HW2 9151   0.221   2.666   4.483 -0.7464 -0.1989 -0.2291
 2843SOL     OW 9152   4.571   3.492   3.458  0.2363 -0.0122  0.1757
 2843SOL    HW1 9153   4.601   3.418   3.519  0.2138 -0.6610 -0.5731
 2843SOL    HW2 9154   4.521   3.452   3.381 -2.6054  1.0232  1.3705
 2844SOL     OW 9155   1.921   2.819   1.430  0.1424 -0.0910  0.1287
 2844SOL    HW1 9156   1.839   2.872   1.407 -0.3321 -1.7646 -2.4435
 2844SOL    HW2 9157   1.930   2.742   1.366  2.7542 -1.0269  1.4819
 2845SOL     OW 9158   3.270   2.441   0.652 -0.4747 -0.1871 -0.8172
 2845SOL    HW1 9159   3.277   2.539   0.633  2.9189  0.6947  3.5331
 2845SOL    HW2 9160   3.186   2.422   0.702  1.0427  1.6826  2.7767
 2846SOL     OW 9161   3.965   1.471   0.570 -0.4170 -0.0164 -1.0352
 2846SOL    HW1 9162   3.988   1.383   0.612 -1.0207  0.2052 -0.2263
 2846SOL    HW2 9163   3.915   1.454   0.485 -0.3943 -0.4540 -0.9657
 2847SOL     OW 9164   2.152   0.551   3.050 -0.4064  0.3530  0.3456
 2847SOL    HW1 9165   2.202   0.480   3.100  1.0608  2.2526  1.7072
 2847SOL    HW2 9166   2.207   0.634   3.046 -2.4863  1.7823 -0.2819
 2848SOL     OW 9167   1.190   0.745   0.608 -0.3110 -0.6642 -0.3036
 2848SOL    HW1 9168   1.283   0.727   0.577  0.6847  0.6629  1.6199
 2848SOL    HW2 9169   1.178   0.706   0.699 -1.1815  0.2538 -0.0084
 2849SOL     OW 9170   2.567   4.289   2.358 -0.4049 -0.2491  0.4417
 2849SOL    HW1 9171   2.659   4.252   2.365 -0.2506  0.2192  0.9336
 2849SOL    HW2 9172   2.570   4.378   2.312 -0.5544 -0.0277  0.8529
 2850SOL     OW 9173   2.901   4.537   4.559  0.3370  0.3730 -0.0144
 2850SOL    HW1 9174   2.877   4.469   4.628 -0.3603 -1.7893 -2.2299
 2850SOL    HW2 9175   2.818   4.579   4.523  0.4358 -0.5100 -1.3598
 2851SOL     OW 9176   2.554   0.750   1.867  0.1538  0.4441 -0.8096
 2851SOL    HW1 9177   2.651   0.745   1.842  0.6845  2.0140  0.6655
 2851SOL    HW2 9178   2.543   0.719   1.962 -0.5714  1.3464 -0.5785
 2852SOL     OW 9179   3.659   1.078   0.832 -0.3274  0.5938 -0.0499
 2852SOL    HW1 9180   3.623   1.061   0.740 -0.8137 -4.0069  0.7636
 2852SOL    HW2 9181   3.585   1.069   0.899 -0.1642  4.6744  0.9351
 2853SOL     OW 9182   1.191   0.561   2.414  0.6487 -0.4899  0.8597
 2853SOL    HW1 9183   1.212   0.615   2.333  0.9851 -0.1586  1.1666
 2853SOL    HW2 9184   1.091   0.551   2.422  0.6421 -1.5652 -0.2618
 2854SOL     OW 9185   3.964   0.030   3.689 -0.2615  0.0545  0.6549
 2854SOL    HW1 9186   3.900  -0.047   3.683 -0.9917  0.7693 -1.4636
 2854SOL    HW2 9187   4.058  -0.005   3.692 -0.6177 -0.9260  0.6789
 2855SOL     OW 9188   4.346   1.204   1.919 -0.5825  0.5145 -0.0844
 2855SOL    HW1 9189   4.293   1.268   1.974 -1.1789  0.8584 -1.0289
 2855SOL    HW2 9190   4.440   1.200   1.954 -1.2922 -0.4208  1.8626
 2856SOL     OW 9191   4.146   2.529   1.626 -0.2171 -0.4581  0.4366
 2856SOL    HW1 9192   4.056   2.537   1.669 -0.0406  0.8816  0.5942
 2856SOL    HW2 9193   4.213   2.502   1.695 -0.2595 -0.0903  0.6262
 2857SOL     OW 9194   4.867   1.495   1.002 -0.4218 -0.3182 -0.0720
 2857SOL    HW1 9195   4.877   1.574   1.063 -1.8998  0.4508 -0.7753
 2857SOL    HW2 9196   4.801   1.431   1.041 -1.4289  0.2122 -0.8661
 2858SOL     OW 9197   2.799   1.478   2.744 -0.1139 -0.5122 -0.7144
 2858SOL    HW1 9198   2.718   1.438   2.701 -2.1870  3.0041 -0.4409
 2858SOL    HW2 9199   2.782   1.493   2.841  2.4138 -3.1512  0.2892
 2859SOL     OW 9200   1.367   1.690   3.800  0.3541 -0.1291  0.5858
 2859SOL    HW1 9201   1.453   1.643   3.819  0.6697  0.8487  1.6326
 2859SOL    HW2 9202   1.303   1.674   3.875 -0.5777 -1.2311 -0.3927
 2860SOL     OW 9203   0.102   4.594   0.901 -0.5750  0.0372  0.1205
 2860SOL    HW1 9204   0.012   4.630   0.924 -1.1165 -2.1438  1.7277
 2860SOL    HW2 9205   0.122   4.612   0.805 -2.3149  1.3364 -0.0327
 2861SOL     OW 9206   3.684   3.396   3.864 -0.7020  0.5929 -0.0104
 2861SOL    HW1 9207   3.596   3.391   3.816  0.3702  1.8872 -2.2814
 2861SOL    HW2 9208   3.712   3.491   3.873 -0.0861  0.2752  1.8633
 2862SOL     OW 9209   1.118   0.316   2.597  0.4744  0.2948 -0.0873
 2862SOL    HW1 9210   1.078   0.250   2.660  1.5286  2.2140  2.7910
 2862SOL    HW2 9211   1.066   0.402   2.602  2.6175  1.6257  0.9548
 2863SOL     OW 9212   0.102   3.053   1.271 -0.3396 -0.0988 -0.0890
 2863SOL    HW1 9213   0.118   3.091   1.179 -0.7511 -0.9841 -0.5334
 2863SOL    HW2 9214   0.161   3.101   1.336 -0.3854  0.8721 -0.7320
 2864SOL     OW 9215   1.084   0.772   4.488  0.0154 -0.4034  0.3113
 2864SOL    HW1 9216   1.184   0.769   4.495  0.4048 -0.8305 -3.3213
 2864SOL    HW2 9217   1.052   0.689   4.441 -2.2922 -1.0355  2.7745
 2865SOL     OW 9218   2.111   2.168   0.784 -0.3064 -0.1804 -0.6586
 2865SOL    HW1 9219   2.025   2.140   0.825  0.0836 -2.2914 -1.1943
 2865SOL    HW2 9220   2.186   2.151   0.848 -0.2983  2.5481  0.2005
 2866SOL     OW 9221   1.693   2.508   3.620  0.1519  0.1426  0.0014
 2866SOL    HW1 9222   1.760   2.564   3.668  1.5334 -1.7558  0.4061
 2866SOL    HW2 9223   1.682   2.421   3.667 -0.7658 -0.5766 -1.4443
 2867SOL     OW 9224   4.407   4.428   3.102  1.0313 -0.1321  0.9998
 2867SOL    HW1 9225   4.409   4.331   3.076 -1.6156  0.3124 -1.2905
 2867SOL    HW2 9226   4.409   4.484   3.020 -0.9763  1.6281  2.0745
 2868SOL     OW 9227   2.904   0.385   3.147  1.1939  0.2070  0.3808
 2868SOL    HW1 9228   2.977   0.338   3.099  0.9801 -0.1672  0.4186
 2868SOL    HW2 9229   2.825   0.323   3.158  0.8216  0.6451  0.2180
 2869SOL     OW 9230   1.783   3.635   0.224  0.5741 -0.7674 -0.0187
 2869SOL    HW1 9231   1.856   3.600   0.282 -0.5429 -4.2266 -0.4980
 2869SOL    HW2 9232   1.698   3.586   0.244 -1.3004  2.0365 -0.5597
 2870SOL     OW 9233   4.016   1.817   2.177 -0.3200  0.1865 -0.3571
 2870SOL    HW1 9234   4.000   1.809   2.079 -1.8234 -0.5347 -0.0859
 2870SOL    HW2 9235   3.933   1.790   2.227 -0.0177  1.7399  1.0868
 2871SOL     OW 9236   4.082   0.107   4.099  0.3081 -0.6114 -0.2216
 2871SOL    HW1 9237   4.119   0.015   4.090 -2.3015 -1.5589 -2.4987
 2871SOL    HW2 9238   4.052   0.122   4.193 -0.0245 -2.4135 -0.0128
 2872SOL     OW 9239   2.178   3.975   4.696  0.7054  0.1122  0.3895
 2872SOL    HW1 9240   2.246   3.901   4.686  2.6713  1.8805 -0.0832
 2872SOL    HW2 9241   2.200   4.030   4.776  1.1025  1.9208 -0.8954
 2873SOL     OW 9242   1.720   4.374   1.063  0.4803  0.3661 -0.0601
 2873SOL    HW1 9243   1.664   4.367   0.981 -1.4748  0.9482  1.1585
 2873SOL    HW2 9244   1.728   4.471   1.089 -2.2004  0.0670  2.4711
 2874SOL     OW 9245   4.985   1.623   3.815 -0.7974  0.6558  0.0095
 2874SOL    HW1 9246   4.923   1.686   3.862 -0.2374 -1.5004  4.0841
 2874SOL    HW2 9247   4.943   1.532   3.811  0.3545  0.1567 -1.1946
 2875SOL     OW 9248   4.134   4.053   2.391  0.6843 -0.1334  0.1684
 2875SOL    HW1 9249   4.159   4.134   2.339 -0.0873  0.4232  0.6393
 2875SOL    HW2 9250   4.076   3.994   2.335  0.9832 -0.2056 -0.0662
 2876SOL     OW 9251   1.844   0.349   4.948 -1.2474  0.3356 -0.1260
 2876SOL    HW1 9252   1.933   0.311   4.970 -1.0910  1.0752  0.5694
 2876SOL    HW2 9253   1.799   0.380   5.032 -1.7065  0.9162 -0.5752
 2877SOL     OW 9254   3.011   0.053   3.147  0.0967 -0.6752 -0.7530
 2877SOL    HW1 9255   2.942  -0.008   3.187 -0.8697 -0.3358 -1.8327
 2877SOL    HW2 9256   3.006   0.048   3.047  0.2576  0.8628 -0.8639
 2878SOL     OW 9257   4.632   4.566   1.831  1.8134 -0.9713  0.7683
 2878SOL    HW1 9258   4.646   4.565   1.930 -1.4213 -3.9188  1.3704
 2878SOL    HW2 9259   4.721   4.561   1.785  3.4312  0.7935  3.4178
 2879SOL     OW 9260   4.302   1.299   0.185  0.5550 -0.2814 -0.9885
 2879SOL    HW1 9261   4.355   1.266   0.107 -0.9825 -3.7165 -0.7691
 2879SOL    HW2 9262   4.212   1.329   0.153  0.3209 -0.6567 -0.6940
 2880SOL     OW 9263   0.915   0.653   0.020 -0.3718  0.0433  0.0927
 2880SOL    HW1 9264   0.820   0.679   0.005 -0.4656 -0.7950 -0.8593
 2880SOL    HW2 9265   0.919   0.557   0.049  0.1414  0.2925  0.8770
 2881SOL     OW 9266   3.327   1.023   4.870 -0.8336 -0.6359  0.4971
 2881SOL    HW1 9267   3.357   0.930   4.891 -0.8535  0.0147  4.2081
 2881SOL    HW2 9268   3.407   1.082   4.861 -0.7364 -1.1544 -3.5750
 2882SOL     OW 9269   3.624   4.955   4.400  0.4195 -0.1239  0.3479
 2882SOL    HW1 9270   3.689   4.951   4.323  0.2197 -1.7618  0.2221
 2882SOL    HW2 9271   3.564   5.034   4.389  1.2914  0.4513 -0.4450
 2883SOL     OW 9272   0.630   2.029   1.723 -0.0456 -0.5098  0.6825
 2883SOL    HW1 9273   0.650   2.019   1.626  0.9286  2.8493  0.4174
 2883SOL    HW2 9274   0.574   2.111   1.737  0.8792 -0.2091  3.0453
 2884SOL     OW 9275   3.574   1.689   2.758 -0.2408 -0.2752 -0.0659
 2884SOL    HW1 9276   3.591   1.786   2.774  4.6133 -0.6242 -1.5873
 2884SOL    HW2 9277   3.583   1.668   2.661  1.6610 -2.6041  0.5091
 2885SOL     OW 9278   3.133   0.615   1.954  0.1693  0.7357 -0.3884
 2885SOL    HW1 9279   3.139   0.550   1.879  1.2824  0.3337  0.0255
 2885SOL    HW2 9280   3.108   0.568   2.038 -0.3406  1.0652 -0.3495
 2886SOL     OW 9281   2.687   0.833   4.428  0.8928  0.4214 -0.0640
 2886SOL    HW1 9282   2.622   0.851   4.501 -0.4046 -0.2766 -1.0132
 2886SOL    HW2 9283   2.714   0.919   4.385  0.9679  0.7498  0.6197
 2887SOL     OW 9284   1.929   1.904   0.636 -0.1398 -0.2314 -0.5279
 2887SOL    HW1 9285   1.873   1.969   0.687  0.7163  0.1535 -0.0471
 2887SOL    HW2 9286   1.884   1.815   0.634 -0.9095  0.1513 -0.4249
 2888SOL     OW 9287   0.274   0.432   4.995 -0.6456  0.7876 -0.4061
 2888SOL    HW1 9288   0.329   0.348   5.004 -1.6660  0.3427  3.4180
 2888SOL    HW2 9289   0.185   0.409   4.957 -0.4543  0.3470 -0.5962
 2889SOL     OW 9290   4.381   3.704   4.938 -0.3632  0.5448 -0.1186
 2889SOL    HW1 9291   4.385   3.625   4.999  0.2876  1.2176  0.7301
 2889SOL    HW2 9292   4.303   3.762   4.963  1.5658  2.3789  2.0967
 2890SOL     OW 9293   2.643   4.668   1.170 -0.2831  0.2962 -0.7286
 2890SOL    HW1 9294   2.678   4.732   1.102  0.5109 -2.1023 -2.7456
 2890SOL    HW2 9295   2.717   4.607   1.198 -1.4562 -1.1017 -0.5453
 2891SOL     OW 9296   3.569   1.991   1.099  0.2974  0.2116 -0.7486
 2891SOL    HW1 9297   3.528   1.968   1.188  3.1772  3.7451  1.8269
 2891SOL    HW2 9298   3.511   2.059   1.053  0.7043  1.4767  0.5110
 2892SOL     OW 9299   2.568   4.338   0.419  0.1082 -0.6634 -0.5189
 2892SOL    HW1 9300   2.538   4.262   0.362  2.3692  0.5650 -3.7201
 2892SOL    HW2 9301   2.547   4.424   0.372  1.8446  0.4597  0.6456
 2893SOL     OW 9302   0.104   1.790   4.642  0.1893  0.9189 -0.5314
 2893SOL    HW1 9303   0.027   1.851   4.662 -0.2117  0.0189  0.8168
 2893SOL    HW2 9304   0.117   1.784   4.543 -1.2469  1.3886 -0.7698
 2894SOL     OW 9305   1.626   1.306   4.339 -0.3265 -0.1081  0.4717
 2894SOL    HW1 9306   1.710   1.352   4.368 -0.1844  1.3063 -1.9463
 2894SOL    HW2 9307   1.562   1.373   4.302 -0.9685 -1.6045 -1.2412
 2895SOL     OW 9308   4.016   1.136   2.971  0.5319 -0.4969 -0.1126
 2895SOL    HW1 9309   4.037   1.086   2.886  2.3900  1.2089 -0.7443
 2895SOL    HW2 9310   4.019   1.073   3.048  0.0893 -1.8502 -1.1543
 2896SOL     OW 9311   2.415   4.791   3.583  0.6951  0.3252 -0.2980
 2896SOL    HW1 9312   2.415   4.724   3.658 -2.5362  1.4882  0.9254
 2896SOL    HW2 9313   2.369   4.751   3.504 -0.1958  0.6699  0.0341
 2897SOL     OW 9314   3.035   1.792   1.554  0.3812  0.1907 -0.6194
 2897SOL    HW1 9315   2.942   1.755   1.564  0.7025 -0.6294 -0.5604
 2897SOL    HW2 9316   3.096   1.744   1.617  1.2277 -0.6877 -2.0547
 2898SOL     OW 9317   0.873   1.027   3.444 -0.3630  0.1700 -0.1755
 2898SOL    HW1 9318   0.847   0.947   3.391  1.6521 -0.6621  0.0314
 2898SOL    HW2 9319   0.851   1.110   3.392 -2.3244 -0.4796 -0.4576
 2899SOL     OW 9320   4.927   3.061   3.917  0.1646 -0.0521 -1.3916
 2899SOL    HW1 9321   4.980   2.978   3.896 -0.3656 -1.4439  2.0500
 2899SOL    HW2 9322   4.988   3.130   3.955 -0.0857 -1.3033  1.6469
 2900SOL     OW 9323   4.113   3.915   4.740  0.7639 -0.1243 -0.6510
 2900SOL    HW1 9324   4.086   3.841   4.802  0.0239 -1.9112 -2.9454
 2900SOL    HW2 9325   4.191   3.886   4.685  1.7169  1.5960 -0.2805
 2901SOL     OW 9326   4.661   3.266   1.169  0.2699 -0.7741 -0.2924
 2901SOL    HW1 9327   4.663   3.362   1.143  0.9929 -1.4415 -3.0268
 2901SOL    HW2 9328   4.672   3.257   1.268 -0.7000  1.9492  0.1345
 2902SOL     OW 9329   4.176   1.380   2.415  0.7760  0.9237 -0.5679
 2902SOL    HW1 9330   4.133   1.294   2.389 -1.0341  1.5336  0.2504
 2902SOL    HW2 9331   4.233   1.367   2.496  2.3961  0.0604 -1.7925
 2903SOL     OW 9332   0.215   2.007   1.992  0.1622  0.3748 -0.5105
 2903SOL    HW1 9333   0.120   1.978   1.986 -0.1366  0.7599  1.4874
 2903SOL    HW2 9334   0.275   1.933   1.962 -0.7050 -0.7239  0.3746
 2904SOL     OW 9335   2.405   0.170   1.785  0.5933 -0.3355 -0.7891
 2904SOL    HW1 9336   2.341   0.210   1.850 -0.1826  5.0248 -4.1941
 2904SOL    HW2 9337   2.496   0.165   1.826 -0.5013 -0.7447  1.7579
 2905SOL     OW 9338   4.725   4.269   1.758  0.3799  0.2648  0.3227
 2905SOL    HW1 9339   4.758   4.175   1.766 -2.4725 -1.0914 -2.1319
 2905SOL    HW2 9340   4.801   4.329   1.732  2.4773 -1.0469  2.9105
 2906SOL     OW 9341   2.353   2.372   0.030  0.2298  0.2426 -0.5138
 2906SOL    HW1 9342   2.403   2.306   0.085  0.9245 -1.0331 -2.5518
 2906SOL    HW2 9343   2.266   2.393   0.073  2.0065  1.7823  2.6614
 2907SOL     OW 9344   4.516   3.380   4.546 -0.5936  0.1035 -0.0918
 2907SOL    HW1 9345   4.596   3.321   4.537  0.5004  1.2021  1.8584
 2907SOL    HW2 9346   4.530   3.445   4.620 -2.6499  1.4118 -0.7510
 2908SOL     OW 9347   0.327   2.385   0.552 -0.8887  0.5033 -0.2491
 2908SOL    HW1 9348   0.389   2.410   0.477  0.4033 -0.6756  0.3622
 2908SOL    HW2 9349   0.335   2.452   0.625 -0.4949  0.4928 -0.2773
 2909SOL     OW 9350   1.982   1.964   2.569 -0.0934  0.3063 -0.0641
 2909SOL    HW1 9351   1.887   1.986   2.590  0.0429 -0.7313  1.9298
 2909SOL    HW2 9352   1.990   1.868   2.543  0.4456  0.2791  0.1742
 2910SOL     OW 9353   2.234   0.385   4.251  0.1371  0.5274  0.0600
 2910SOL    HW1 9354   2.177   0.451   4.300 -0.1173  1.3358 -1.2697
 2910SOL    HW2 9355   2.218   0.293   4.288 -0.8361  0.9605  0.7582
 2911SOL     OW 9356   4.777   2.698   1.850 -0.2516  0.2793 -0.5005
 2911SOL    HW1 9357   4.806   2.659   1.762 -3.2880 -1.6147 -0.8217
 2911SOL    HW2 9358   4.783   2.628   1.921  0.0432  1.1356  0.3388
 2912SOL     OW 9359   1.173   2.459   2.628  0.8227  0.7746 -0.0539
 2912SOL    HW1 9360   1.211   2.518   2.699  2.9924 -2.6689  1.9004
 2912SOL    HW2 9361   1.187   2.363   2.652 -1.1358 -0.6569 -3.7392
 2913SOL     OW 9362   2.199   2.801   4.221  0.2196  0.5783  0.5424
 2913SOL    HW1 9363   2.196   2.706   4.250  2.0275  0.3376  0.0271
 2913SOL    HW2 9364   2.268   2.851   4.273 -1.7536  2.0549  1.9081
 2914SOL     OW 9365   1.955   3.062   0.929 -0.0384 -0.0586  0.0994
 2914SOL    HW1 9366   1.914   3.141   0.882 -2.4758 -1.5331 -0.4050
 2914SOL    HW2 9367   1.997   3.001   0.861 -3.8851 -2.3771 -0.4403
 2915SOL     OW 9368   4.580   1.063   0.480 -0.2179  0.8399 -0.5709
 2915SOL    HW1 9369   4.513   1.016   0.537 -1.3816 -0.4162 -2.8279
 2915SOL    HW2 9370   4.565   1.161   0.485  0.7448  0.9416  2.4179
 2916SOL     OW 9371   4.596   2.478   3.635 -0.9741  0.6848 -0.1371
 2916SOL    HW1 9372   4.555   2.439   3.718 -0.3963 -0.0899 -0.2083
 2916SOL    HW2 9373   4.605   2.407   3.566 -2.5996  1.5834 -1.3344
 2917SOL     OW 9374   2.143   0.578   2.623  0.1433  0.4783  0.0921
 2917SOL    HW1 9375   2.236   0.549   2.647  1.7561  3.4520 -1.8903
 2917SOL    HW2 9376   2.111   0.645   2.689 -1.2113 -1.4013  1.4544
 2918SOL     OW 9377   2.101   0.257   3.331  0.3003  0.6625  0.2558
 2918SOL    HW1 9378   2.062   0.210   3.251  1.2998 -0.7495  0.5614
 2918SOL    HW2 9379   2.030   0.312   3.374 -0.6504  0.2692 -0.7408
 2919SOL     OW 9380   2.677   4.067   3.955 -0.0390  0.5283 -0.1179
 2919SOL    HW1 9381   2.645   4.160   3.975  3.1187  1.5439  0.8325
 2919SOL    HW2 9382   2.615   4.001   3.998 -2.0950  2.1530 -0.3897
 2920SOL     OW 9383   3.527   0.854   1.913  0.3418 -0.1724 -0.1494
 2920SOL    HW1 9384   3.433   0.886   1.899  0.0305  1.0302  3.5596
 2920SOL    HW2 9385   3.525   0.756   1.932 -0.1445 -0.1851 -0.2281
 2921SOL     OW 9386   0.254   1.944   4.888 -0.4547  0.2087 -0.5588
 2921SOL    HW1 9387   0.181   1.940   4.820 -0.7860 -0.2171 -0.1855
 2921SOL    HW2 9388   0.295   1.854   4.898  0.3095  0.5011 -0.9574
 2922SOL     OW 9389   2.229   3.751   3.709  0.1676  0.4689 -0.2379
 2922SOL    HW1 9390   2.231   3.810   3.629  2.1291 -0.6672 -1.1109
 2922SOL    HW2 9391   2.321   3.744   3.748 -0.0639 -1.6313  0.0711
 2923SOL     OW 9392   1.892   1.671   4.906  0.1182  0.6037 -0.2714
 2923SOL    HW1 9393   1.913   1.573   4.905 -0.4592  0.4801 -0.4939
 2923SOL    HW2 9394   1.973   1.721   4.936  1.4037  0.2847 -2.9354
 2924SOL     OW 9395   1.631   1.125   1.281  0.3518  0.0038 -0.2303
 2924SOL    HW1 9396   1.652   1.140   1.185 -3.1803  2.6182 -0.7853
 2924SOL    HW2 9397   1.686   1.187   1.338 -0.7662  1.7659 -1.0106
 2925SOL     OW 9398   4.877   0.606   0.955  0.0271 -0.6772  1.0487
 2925SOL    HW1 9399   4.923   0.520   0.976  1.8489  1.0000  5.0933
 2925SOL    HW2 9400   4.826   0.637   1.036 -0.7381  1.9559 -0.3129
 2926SOL     OW 9401   1.257   3.471   2.011 -0.3000 -0.2057 -0.0535
 2926SOL    HW1 9402   1.166   3.483   1.972 -0.3245  0.5646  0.2336
 2926SOL    HW2 9403   1.304   3.559   2.017  1.1909 -0.7938 -1.9198
 2927SOL     OW 9404   3.187   3.332   3.377 -0.1221 -0.6230  0.1409
 2927SOL    HW1 9405   3.171   3.236   3.353  0.0991 -0.8470  0.8549
 2927SOL    HW2 9406   3.181   3.389   3.295  2.0100 -1.5239 -0.6929
 2928SOL     OW 9407   0.710   3.551   4.902 -0.6186 -0.1846  0.0944
 2928SOL    HW1 9408   0.768   3.470   4.903  0.7073  0.6017 -3.0369
 2928SOL    HW2 9409   0.765   3.632   4.923 -1.4061  0.2044  0.7355
 2929SOL     OW 9410   3.811   3.284   4.302  0.4228 -0.9322 -0.0710
 2929SOL    HW1 9411   3.860   3.244   4.379  2.5396  0.3667 -0.6523
 2929SOL    HW2 9412   3.874   3.298   4.226 -1.1120 -0.1193 -1.2499
 2930SOL     OW 9413   2.201   0.914   3.513  0.1727 -0.4022 -0.3144
 2930SOL    HW1 9414   2.246   0.962   3.588 -1.4265  2.0138 -0.7742
 2930SOL    HW2 9415   2.269   0.891   3.442  0.9995  1.5064 -0.2021
 2931SOL     OW 9416   2.912   0.302   0.968  0.8704 -0.1003  0.5816
 2931SOL    HW1 9417   2.866   0.242   1.033 -2.2466  4.4142  3.0939
 2931SOL    HW2 9418   2.954   0.378   1.017 -0.1624  2.6753 -2.4950
 2932SOL     OW 9419   4.117   2.868   1.533  0.3306  0.4950  0.2038
 2932SOL    HW1 9420   4.107   2.835   1.627  0.5226  3.3854  1.3262
 2932SOL    HW2 9421   4.036   2.920   1.507  1.1562  1.4770 -0.4518
 2933SOL     OW 9422   2.988   1.616   0.191 -0.5442  0.8137 -0.9702
 2933SOL    HW1 9423   3.013   1.711   0.173  1.9395  0.0721 -1.9267
 2933SOL    HW2 9424   3.047   1.555   0.136 -1.8902 -1.2854 -0.2151
 2934SOL     OW 9425   3.468   1.440   0.027 -0.2389 -0.0434  0.0692
 2934SOL    HW1 9426   3.430   1.525   0.064  0.2910  0.7915 -1.2190
 2934SOL    HW2 9427   3.442   1.431  -0.069  0.4907 -0.8730 -0.0652
 2935SOL     OW 9428   0.380   1.856   3.501 -0.2691 -0.5995 -0.0803
 2935SOL    HW1 9429   0.338   1.812   3.581 -0.4024  0.8892  0.7135
 2935SOL    HW2 9430   0.473   1.885   3.525 -0.4968  0.3247 -0.2713
 2936SOL     OW 9431   1.831   4.905   4.549 -0.4744  0.3064 -0.0096
 2936SOL    HW1 9432   1.822   4.982   4.486  1.2621  0.0468 -0.6387
 2936SOL    HW2 9433   1.800   4.821   4.504 -1.3649  0.4489  0.3076
 2937SOL     OW 9434   0.649   3.681   0.997 -0.2417  0.4530  0.3764
 2937SOL    HW1 9435   0.564   3.707   1.042 -0.7418  0.3366 -0.4849
 2937SOL    HW2 9436   0.629   3.642   0.907  0.7013  0.1061  0.3039
 2938SOL     OW 9437   0.669   4.500   1.258 -0.4307  0.3738 -0.4146
 2938SOL    HW1 9438   0.663   4.411   1.303 -2.5020  1.1185  0.9070
 2938SOL    HW2 9439   0.620   4.568   1.312  0.4311  2.1801 -1.8020
 2939SOL     OW 9440   1.845   3.787   2.041  0.3318  0.0778  0.3953
 2939SOL    HW1 9441   1.854   3.806   1.943 -0.1559 -0.4009  0.2489
 2939SOL    HW2 9442   1.869   3.869   2.093  1.7768 -0.0215 -0.0682
 2940SOL     OW 9443   0.152   1.272   0.240  0.3653 -0.6931  0.7734
 2940SOL    HW1 9444   0.102   1.353   0.270 -2.9467 -2.0453 -0.6478
 2940SOL    HW2 9445   0.177   1.282   0.144  1.2004 -0.8345  0.9644
 2941SOL     OW 9446   3.668   1.263   4.173  0.1364  0.3691 -0.2952
 2941SOL    HW1 9447   3.705   1.259   4.080  1.3698 -0.2742  0.2020
 2941SOL    HW2 9448   3.609   1.343   4.182 -0.4685  0.1310 -1.7903
 2942SOL     OW 9449   3.210   1.637   1.400 -0.7641 -0.3287 -0.5481
 2942SOL    HW1 9450   3.125   1.673   1.438 -1.0640  0.6529 -2.0471
 2942SOL    HW2 9451   3.205   1.640   1.300  0.2678 -2.1093 -0.7056
 2943SOL     OW 9452   4.265   1.723   4.060  0.4501 -0.4148 -0.2552
 2943SOL    HW1 9453   4.226   1.814   4.049  1.1856  0.2888  2.2862
 2943SOL    HW2 9454   4.216   1.658   4.002 -2.5605  0.9314  0.5864
 2944SOL     OW 9455   4.465   4.881   0.413 -0.0114 -0.0173  1.1809
 2944SOL    HW1 9456   4.447   4.872   0.315  1.4457  0.6419  0.8292
 2944SOL    HW2 9457   4.405   4.951   0.452 -0.1961  0.1275  0.6423
 2945SOL     OW 9458   2.428   2.108   0.774  0.4569 -0.4410 -0.3093
 2945SOL    HW1 9459   2.508   2.098   0.833 -0.2717  2.0086  1.2104
 2945SOL    HW2 9460   2.457   2.142   0.684  1.0988  1.3059  0.5162
 2946SOL     OW 9461   1.954   4.603   4.457  0.1434 -0.5526 -0.3064
 2946SOL    HW1 9462   1.972   4.506   4.441 -1.8401 -1.0184  0.0850
 2946SOL    HW2 9463   1.874   4.631   4.405 -1.3008  0.0159  2.0692
 2947SOL     OW 9464   3.749   0.244   4.364 -0.3516  0.2010 -0.1615
 2947SOL    HW1 9465   3.712   0.336   4.381 -3.5020 -1.5001  3.7123
 2947SOL    HW2 9466   3.689   0.195   4.301 -0.7143 -0.2679  0.5326
 2948SOL     OW 9467   0.335   1.417   0.461  0.2603 -0.2365  0.3916
 2948SOL    HW1 9468   0.306   1.338   0.407 -0.2941 -0.9920  1.7739
 2948SOL    HW2 9469   0.354   1.493   0.399 -1.4247 -0.7335 -0.8032
 2949SOL     OW 9470   1.433   1.377   4.569 -0.7594 -0.1507 -0.1239
 2949SOL    HW1 9471   1.466   1.287   4.542  1.6517  0.7231 -0.2560
 2949SOL    HW2 9472   1.400   1.426   4.488 -1.2944 -0.5749 -0.1722
 2950SOL     OW 9473   4.035   1.383   0.087  0.1078  0.5038  0.0982
 2950SOL    HW1 9474   4.018   1.364  -0.010  0.7099 -0.6348  0.1957
 2950SOL    HW2 9475   3.967   1.334   0.142  1.5203 -1.2566  0.3490
 2951SOL     OW 9476   2.484   4.305   3.238  0.2592  0.0767  0.0152
 2951SOL    HW1 9477   2.565   4.294   3.180 -0.2163 -0.9943 -0.4825
 2951SOL    HW2 9478   2.477   4.400   3.269 -0.1178  1.0432 -2.6904
 2952SOL     OW 9479   2.062   3.727   4.388 -0.4314 -0.3332 -0.2723
 2952SOL    HW1 9480   2.108   3.792   4.327 -2.1371  0.8119 -0.4196
 2952SOL    HW2 9481   2.089   3.634   4.364 -0.8222  0.0951 -2.6449
 2953SOL     OW 9482   4.894   3.559   3.650  0.0295  0.4732 -0.0168
 2953SOL    HW1 9483   4.960   3.630   3.675  0.2106 -0.1532  1.3402
 2953SOL    HW2 9484   4.883   3.558   3.551 -0.3252  2.7090 -0.0550
 2954SOL     OW 9485   1.691   1.612   2.478 -0.0038 -0.0933  0.3340
 2954SOL    HW1 9486   1.774   1.639   2.527  0.0146  0.9079 -0.2225
 2954SOL    HW2 9487   1.627   1.570   2.542 -0.7719  2.8931  1.6936
 2955SOL     OW 9488   3.148   0.776   3.829 -0.2275  0.4469  0.3821
 2955SOL    HW1 9489   3.068   0.723   3.801 -0.5356  0.6240  0.9056
 2955SOL    HW2 9490   3.134   0.872   3.805  1.0125  0.0879 -2.0276
 2956SOL     OW 9491   2.923   0.556   0.198 -0.2059 -0.5555  0.1370
 2956SOL    HW1 9492   3.017   0.525   0.183  0.0654  0.6393 -0.9114
 2956SOL    HW2 9493   2.877   0.565   0.109 -0.9463 -0.0709  0.5589
 2957SOL     OW 9494   4.008   1.989   2.379  0.1735  0.0591 -0.0391
 2957SOL    HW1 9495   4.021   1.931   2.298  0.9818  0.4392 -0.1943
 2957SOL    HW2 9496   4.097   2.010   2.419 -0.2087 -0.0430  0.8996
 2958SOL     OW 9497   3.312   4.929   3.532 -0.2111  0.3792  0.0648
 2958SOL    HW1 9498   3.216   4.930   3.502 -0.8586 -1.6090  1.8367
 2958SOL    HW2 9499   3.317   4.901   3.628  1.9342  3.8739  1.1879
 2959SOL     OW 9500   3.694   2.368   2.695  0.0613 -0.8153 -0.8264
 2959SOL    HW1 9501   3.770   2.415   2.650  0.4642 -1.9562 -1.3737
 2959SOL    HW2 9502   3.636   2.324   2.627 -1.8923  1.1122 -0.5309
 2960SOL     OW 9503   0.128   0.974   0.186 -0.2301  0.1693  0.0251
 2960SOL    HW1 9504   0.030   0.953   0.191 -0.7943  2.4782 -0.2046
 2960SOL    HW2 9505   0.156   0.980   0.090  0.2111 -0.6605  0.0892
 2961SOL     OW 9506   3.969   0.272   1.790  0.1506  0.2184  0.1117
 2961SOL    HW1 9507   4.048   0.323   1.757  1.8716 -2.1869  0.2011
 2961SOL    HW2 9508   3.956   0.190   1.734 -3.5994  1.4944 -1.1720
 2962SOL     OW 9509   3.690   1.793   1.464 -0.5500  0.8438  0.2516
 2962SOL    HW1 9510   3.607   1.738   1.464  0.1624 -0.2926 -1.2807
 2962SOL    HW2 9511   3.702   1.837   1.375  0.6868  0.6523  0.2986
 2963SOL     OW 9512   2.760   2.536   2.303  0.4769 -0.8947  0.3910
 2963SOL    HW1 9513   2.806   2.619   2.332 -2.2082  0.3324  1.5170
 2963SOL    HW2 9514   2.760   2.530   2.203  1.9930 -0.3709  0.3435
 2964SOL     OW 9515   1.164   4.503   2.615 -0.4899 -0.3017  0.1290
 2964SOL    HW1 9516   1.180   4.541   2.524  1.1597  2.2546  1.3679
 2964SOL    HW2 9517   1.168   4.403   2.611  0.0453 -0.2267 -2.5031
 2965SOL     OW 9518   3.672   0.806   1.698  0.5372  0.2247  0.2972
 2965SOL    HW1 9519   3.741   0.740   1.728 -1.1678 -1.3915  0.8452
 2965SOL    HW2 9520   3.608   0.824   1.772 -2.3304 -1.9574 -1.4010
 2966SOL     OW 9521   1.540   3.419   2.639  0.9213  0.4265  0.4881
 2966SOL    HW1 9522   1.611   3.372   2.693 -0.4528 -0.2632  1.7509
 2966SOL    HW2 9523   1.468   3.451   2.699 -0.6642 -0.3348 -0.9294
 2967SOL     OW 9524   3.534   3.136   0.866  0.4335 -0.3496  0.2887
 2967SOL    HW1 9525   3.564   3.071   0.936 -1.3992  0.4954  1.9577
 2967SOL    HW2 9526   3.434   3.139   0.865  0.4259  0.3014 -1.8331
 2968SOL     OW 9527   3.776   1.671   0.681 -0.6467 -0.2677  0.7671
 2968SOL    HW1 9528   3.815   1.709   0.765 -2.7976  0.8890  1.3211
 2968SOL    HW2 9529   3.834   1.598   0.647  0.8364 -0.0419  2.6663
 2969SOL     OW 9530   1.082   2.203   0.155  0.3294  0.4360 -0.2068
 2969SOL    HW1 9531   1.038   2.167   0.237  1.3458  1.8285  1.0005
 2969SOL    HW2 9532   1.170   2.158   0.141  1.2968  1.8892  0.9265
 2970SOL     OW 9533   1.417   0.865   2.273 -0.3226 -0.6823 -0.9224
 2970SOL    HW1 9534   1.358   0.946   2.273  1.5707  0.7769 -0.6773
 2970SOL    HW2 9535   1.481   0.871   2.196 -0.6810 -2.3873 -1.3880
 2971SOL     OW 9536   2.425   3.841   1.914  0.1829  0.0510 -0.1517
 2971SOL    HW1 9537   2.402   3.884   2.002 -1.0998 -0.2667 -0.3102
 2971SOL    HW2 9538   2.492   3.769   1.929 -2.5675 -2.4428  1.1895
 2972SOL     OW 9539   2.627   3.524   2.165 -0.3946 -0.5092  0.5223
 2972SOL    HW1 9540   2.561   3.506   2.237 -2.4831 -0.5244 -1.2850
 2972SOL    HW2 9541   2.593   3.597   2.106  1.0502 -0.7445 -0.6665
 2973SOL     OW 9542   1.699   2.078   2.480 -0.0485 -0.0542  0.0834
 2973SOL    HW1 9543   1.744   2.137   2.413  0.2307  0.1968  0.4871
 2973SOL    HW2 9544   1.733   2.100   2.572  1.0015 -1.7013  0.1313
 2974SOL     OW 9545   1.808   0.541   3.612  0.0323  0.1760  0.6237
 2974SOL    HW1 9546   1.858   0.626   3.604 -0.4222  0.2671 -3.5678
 2974SOL    HW2 9547   1.724   0.556   3.665  0.4051  2.0885  0.7312
 2975SOL     OW 9548   2.579   3.060   4.700 -0.6716 -0.3167 -0.5006
 2975SOL    HW1 9549   2.662   3.114   4.715 -0.8855  1.1156 -3.6752
 2975SOL    HW2 9550   2.603   2.973   4.659 -0.6650 -0.4590 -0.1968
 2976SOL     OW 9551   3.434   3.766   2.733  0.1518  0.5409 -0.6118
 2976SOL    HW1 9552   3.453   3.759   2.831  0.5374 -0.9671 -0.7752
 2976SOL    HW2 9553   3.336   3.758   2.716 -0.3830  4.1594 -0.1226
 2977SOL     OW 9554   4.956   2.593   1.673 -0.2990  0.1555  0.5057
 2977SOL    HW1 9555   4.985   2.539   1.753 -0.5448 -1.4876 -0.4663
 2977SOL    HW2 9556   4.884   2.544   1.624  1.0388  0.2523 -1.6919
 2978SOL     OW 9557   3.287   0.370   3.430 -0.8598 -1.5222 -0.4971
 2978SOL    HW1 9558   3.252   0.373   3.337 -1.6714 -1.7735 -0.2072
 2978SOL    HW2 9559   3.344   0.451   3.447 -3.0916  0.1082 -0.3073
 2979SOL     OW 9560   1.499   3.577   3.951  0.0044  0.6656 -0.9051
 2979SOL    HW1 9561   1.475   3.672   3.931 -1.0904  1.3180  2.6903
 2979SOL    HW2 9562   1.598   3.567   3.952  0.1495  1.8964 -0.9398
 2980SOL     OW 9563   0.752   4.994   2.290 -0.0780 -0.2902 -1.1457
 2980SOL    HW1 9564   0.736   4.912   2.346  0.5252 -0.2298 -0.8867
 2980SOL    HW2 9565   0.812   5.057   2.339 -2.1039  1.2169 -0.4668
 2981SOL     OW 9566   3.703   3.945   2.135  0.1793 -0.1121  0.2350
 2981SOL    HW1 9567   3.629   4.003   2.168  0.5574  0.1038  0.7254
 2981SOL    HW2 9568   3.666   3.859   2.102 -0.6517  1.1684 -2.4892
 2982SOL     OW 9569   1.470   4.349   3.383  0.0984  0.4306  0.2008
 2982SOL    HW1 9570   1.533   4.342   3.461  1.8436  0.6712 -1.1282
 2982SOL    HW2 9571   1.495   4.429   3.328 -3.2765  2.4258  1.1960
 2983SOL     OW 9572   0.966   0.532   2.598 -1.3052 -0.9684  0.1265
 2983SOL    HW1 9573   0.976   0.538   2.698  0.6430 -0.5869 -0.0461
 2983SOL    HW2 9574   0.869   0.536   2.574 -1.7777 -0.1397  1.9525
 2984SOL     OW 9575   3.029   4.155   3.132  0.4482  0.3735 -0.7730
 2984SOL    HW1 9576   3.096   4.216   3.089  1.7797 -1.2083 -1.0432
 2984SOL    HW2 9577   3.077   4.087   3.186 -1.1119  0.7215  1.1248
 2985SOL     OW 9578   1.444   3.847   2.559 -0.3987 -0.7749 -1.0228
 2985SOL    HW1 9579   1.542   3.857   2.576 -0.8112 -1.0586  2.1401
 2985SOL    HW2 9580   1.417   3.907   2.484  1.0765  4.9806  2.3777
 2986SOL     OW 9581   1.762   1.696   3.523 -0.5387 -0.1293  0.8437
 2986SOL    HW1 9582   1.771   1.600   3.494 -5.6516 -0.7177  0.2291
 2986SOL    HW2 9583   1.844   1.747   3.495 -0.0413 -3.0361 -4.4324
 2987SOL     OW 9584   1.004   4.404   1.270  0.0776 -0.3195  0.4438
 2987SOL    HW1 9585   0.936   4.476   1.269 -0.6462 -0.9873 -1.5326
 2987SOL    HW2 9586   1.023   4.377   1.365 -1.6911  0.5214  1.0650
 2988SOL     OW 9587   0.837   1.165   1.342 -0.7615 -0.4986  0.2800
 2988SOL    HW1 9588   0.799   1.222   1.268  1.6437  1.3534  0.3384
 2988SOL    HW2 9589   0.847   1.220   1.425 -2.7412 -2.3569  1.8733
 2989SOL     OW 9590   3.689   0.585   1.039  0.5095  1.2033  0.3695
 2989SOL    HW1 9591   3.707   0.507   0.978 -0.5846  0.8120  0.5108
 2989SOL    HW2 9592   3.623   0.557   1.109  1.8767  1.6012  1.8522
 2990SOL     OW 9593   3.011   2.486   1.900 -0.3761  0.0550  0.3730
 2990SOL    HW1 9594   2.952   2.517   1.824  0.2068  0.5012  0.0956
 2990SOL    HW2 9595   3.068   2.410   1.869 -1.2887 -0.8476  0.8454
 2991SOL     OW 9596   2.603   4.858   0.935 -0.0498 -0.1393  0.1951
 2991SOL    HW1 9597   2.642   4.946   0.909 -0.3344  0.0039  0.2493
 2991SOL    HW2 9598   2.625   4.789   0.867 -2.1615  0.5714 -1.3112
 2992SOL     OW 9599   2.093   0.492   3.717 -0.1822  0.0138 -0.6561
 2992SOL    HW1 9600   2.109   0.410   3.662  3.8746  0.3244 -0.2108
 2992SOL    HW2 9601   2.102   0.469   3.814  0.9989  0.9382 -0.5277
 2993SOL     OW 9602   4.677   1.136   1.868 -0.2727  0.1007 -0.4838
 2993SOL    HW1 9603   4.773   1.164   1.870 -0.2524 -0.0019  1.4911
 2993SOL    HW2 9604   4.672   1.037   1.856  0.0192 -0.2715  1.9307
 2994SOL     OW 9605   3.177   0.087   4.948  0.7548 -0.3912  0.1037
 2994SOL    HW1 9606   3.257   0.099   5.008  1.9411  0.3890 -1.5583
 2994SOL    HW2 9607   3.172  -0.009   4.919  2.8310  0.0551 -2.0150
 2995SOL     OW 9608   2.757   2.607   1.542 -0.0946 -0.5104 -1.2075
 2995SOL    HW1 9609   2.789   2.699   1.521  0.4562  0.0109  1.4849
 2995SOL    HW2 9610   2.662   2.597   1.514  0.2113  0.4256 -2.6618
 2996SOL     OW 9611   0.465   0.245   2.049 -0.4426 -1.1957  0.7288
 2996SOL    HW1 9612   0.498   0.183   1.978 -1.6805 -1.3750  0.2964
 2996SOL    HW2 9613   0.382   0.290   2.018 -0.9396 -1.1897  2.0287
 2997SOL     OW 9614   3.919   1.400   2.237 -0.3914  0.1533  0.3867
 2997SOL    HW1 9615   3.896   1.350   2.320  1.4377 -1.5233 -0.0223
 2997SOL    HW2 9616   3.980   1.344   2.180 -0.8285  1.6191 -1.6520
 2998SOL     OW 9617   0.203   0.752   2.818 -0.0670 -0.3843 -0.1670
 2998SOL    HW1 9618   0.141   0.733   2.894  0.5232 -0.2690  0.3518
 2998SOL    HW2 9619   0.177   0.697   2.739  0.1276 -1.5167  0.5388
 2999SOL     OW 9620   4.441   2.132   1.493  0.2279 -1.1619 -0.3920
 2999SOL    HW1 9621   4.481   2.127   1.584  1.2968 -1.1483 -0.8410
 2999SOL    HW2 9622   4.342   2.140   1.500  0.2920 -1.2418  0.7607
 3000SOL     OW 9623   2.449   2.156   2.815  0.4291 -0.4527 -0.4867
 3000SOL    HW1 9624   2.491   2.149   2.906  0.3890 -1.5036 -0.5387
 3000SOL    HW2 9625   2.519   2.141   2.745  0.8876  2.3249 -0.7221
 3001SOL     OW 9626   2.326   0.917   0.638 -0.1195  0.1216 -0.2710
 3001SOL    HW1 9627   2.266   0.925   0.718  3.2828 -1.5602  2.7267
 3001SOL    HW2 9628   2.314   0.828   0.596  1.6854 -1.1967  1.7853
 3002SOL     OW 9629   3.222   3.010   3.922 -0.1093 -0.1412 -1.1872
 3002SOL    HW1 9630   3.257   2.921   3.948  0.7559  0.0815 -1.5862
 3002SOL    HW2 9631   3.184   3.055   4.003  1.1840 -0.0832 -0.5941
 3003SOL     OW 9632   1.288   2.192   2.052 -0.0188 -0.0458 -0.3195
 3003SOL    HW1 9633   1.298   2.285   2.086 -2.5819  0.1190  0.1933
 3003SOL    HW2 9634   1.378   2.155   2.026  1.2931  1.8088  1.3640
 3004SOL     OW 9635   3.073   2.913   2.591  0.8724  0.1381  0.1013
 3004SOL    HW1 9636   3.133   2.979   2.546  0.4070  1.2979  1.1243
 3004SOL    HW2 9637   3.129   2.845   2.639  1.3578  0.2339 -0.3249
 3005SOL     OW 9638   2.275   4.110   3.237 -0.7270  0.2047 -0.5898
 3005SOL    HW1 9639   2.279   4.043   3.162  2.5987  1.0590 -1.3844
 3005SOL    HW2 9640   2.357   4.167   3.233 -3.3461  4.4336 -0.0068
 3006SOL     OW 9641   4.063   4.768   4.950 -0.1566  0.1772  0.4712
 3006SOL    HW1 9642   4.035   4.679   4.916 -0.4904  0.1551  0.8021
 3006SOL    HW2 9643   4.094   4.760   5.044 -1.2798  0.5954  0.8921
 3007SOL     OW 9644   2.580   3.149   0.250  1.1824 -0.4201  0.5289
 3007SOL    HW1 9645   2.567   3.207   0.330  2.0962  0.6480 -0.0666
 3007SOL    HW2 9646   2.491   3.127   0.209  0.6019 -1.9189  2.4340
 3008SOL     OW 9647   1.606   0.944   2.060 -0.2510  0.7512 -0.8944
 3008SOL    HW1 9648   1.654   0.930   2.146 -2.0208 -1.6594 -0.2026
 3008SOL    HW2 9649   1.635   0.875   1.993 -1.5621  0.2749 -0.9880
 3009SOL     OW 9650   4.632   0.618   0.151  0.2069 -0.1097 -0.3878
 3009SOL    HW1 9651   4.676   0.683   0.213  0.7534 -0.9860  0.1615
 3009SOL    HW2 9652   4.559   0.570   0.199  0.5569 -0.7121 -0.4444
 3010SOL     OW 9653   0.329   1.151   4.642  0.2784 -0.6154  0.4881
 3010SOL    HW1 9654   0.353   1.080   4.709 -0.0893 -1.0384  0.1752
 3010SOL    HW2 9655   0.411   1.201   4.615  0.7173 -1.6289 -0.0933
 3011SOL     OW 9656   2.395   2.932   3.509  0.3604  0.2218 -0.1250
 3011SOL    HW1 9657   2.340   2.884   3.578  0.6476 -1.3356 -0.9329
 3011SOL    HW2 9658   2.358   3.024   3.495 -0.1913  0.2821  1.5033
 3012SOL     OW 9659   4.783   1.082   1.144  0.2065 -0.1354  0.1927
 3012SOL    HW1 9660   4.800   1.169   1.191 -1.5669  1.5435 -2.0068
 3012SOL    HW2 9661   4.854   1.016   1.168  0.4805  1.1847  3.5772
 3013SOL     OW 9662   0.788   4.160   2.678 -0.2446 -1.0091  0.2998
 3013SOL    HW1 9663   0.691   4.172   2.661 -0.2853 -0.4948  0.8605
 3013SOL    HW2 9664   0.814   4.209   2.761  0.5655 -0.8349 -0.0448
 3014SOL     OW 9665   0.095   2.288   2.824 -0.3909 -0.0647  0.1819
 3014SOL    HW1 9666   0.088   2.334   2.912  2.8064 -1.1165  1.1413
 3014SOL    HW2 9667   0.007   2.291   2.777 -2.3670  0.0797  3.5988
 3015SOL     OW 9668   0.504   3.767   4.418 -0.5695  0.3437 -0.2640
 3015SOL    HW1 9669   0.499   3.687   4.478  1.8558  0.4345  0.1796
 3015SOL    HW2 9670   0.595   3.809   4.427 -0.9608  1.7485 -2.2738
 3016SOL     OW 9671   1.967   4.518   3.635 -0.2915 -0.6735 -0.1785
 3016SOL    HW1 9672   1.898   4.447   3.649  0.4221 -1.1584  1.0110
 3016SOL    HW2 9673   2.053   4.491   3.679  0.8946 -0.3882 -2.1740
 3017SOL     OW 9674   2.078   2.182   3.373 -0.3966 -1.0380  0.9768
 3017SOL    HW1 9675   2.159   2.130   3.346  0.8103  0.0265  2.3919
 3017SOL    HW2 9676   2.103   2.248   3.444 -1.6725  2.0430 -1.2428
 3018SOL     OW 9677   0.445   2.120   4.983  0.7903  0.2470  0.6724
 3018SOL    HW1 9678   0.416   2.121   5.079  1.7142 -1.4609  1.0210
 3018SOL    HW2 9679   0.385   2.060   4.931  0.9766  0.2586  0.4438
 3019SOL     OW 9680   4.005   0.369   2.052  0.1708 -0.5510  0.9068
 3019SOL    HW1 9681   4.074   0.441   2.043  1.7044 -1.8516  1.7707
 3019SOL    HW2 9682   3.987   0.328   1.963 -0.9396  1.0298  0.3462
 3020SOL     OW 9683   3.710   3.899   4.885  0.0087  0.5272 -0.2921
 3020SOL    HW1 9684   3.640   3.893   4.956 -1.6824 -1.4298 -1.9955
 3020SOL    HW2 9685   3.798   3.869   4.922 -1.0832 -1.6664  0.7470
 3021SOL     OW 9686   1.701   2.870   4.196 -0.0684  1.3135  0.0849
 3021SOL    HW1 9687   1.672   2.892   4.290  1.8733  2.2666  0.5177
 3021SOL    HW2 9688   1.635   2.908   4.131 -1.5208  0.5239  1.0365
 3022SOL     OW 9689   1.096   3.143   2.607 -0.5582  0.1386  0.2984
 3022SOL    HW1 9690   1.150   3.082   2.666  2.7633  2.0087 -0.5790
 3022SOL    HW2 9691   1.018   3.092   2.570 -2.0305 -1.5721  4.9652
 3023SOL     OW 9692   3.107   4.512   2.739 -1.0601 -0.2834 -0.2364
 3023SOL    HW1 9693   3.140   4.555   2.823 -3.7113  0.6116  0.4410
 3023SOL    HW2 9694   3.038   4.443   2.762  2.5891 -4.7361 -1.3276
 3024SOL     OW 9695   3.508   0.500   4.304 -0.2118  0.3724  0.6275
 3024SOL    HW1 9696   3.503   0.594   4.339 -0.4761  0.3630  0.6160
 3024SOL    HW2 9697   3.434   0.485   4.238  1.9373  1.3032 -2.2065
 3025SOL     OW 9698   3.369   1.022   0.645  0.6393  0.4490 -0.0301
 3025SOL    HW1 9699   3.436   1.009   0.573  1.6862  1.9999  0.6108
 3025SOL    HW2 9700   3.282   1.053   0.604  0.4537 -1.0041 -0.8031
 3026SOL     OW 9701   0.375   1.871   1.737  0.0634 -0.8385  0.8767
 3026SOL    HW1 9702   0.466   1.906   1.717 -0.5238  0.2620 -0.0357
 3026SOL    HW2 9703   0.311   1.902   1.665 -1.5499  0.6602  2.8359
 3027SOL     OW 9704   2.068   4.287   4.112  0.7918  0.4763 -0.9848
 3027SOL    HW1 9705   2.158   4.319   4.083  0.7553  0.5636 -1.0014
 3027SOL    HW2 9706   2.038   4.214   4.051 -0.4794  2.4581 -2.8765
 3028SOL     OW 9707   2.761   4.846   3.547 -0.4319  0.3310  0.6186
 3028SOL    HW1 9708   2.727   4.818   3.637 -1.0568 -4.7235 -0.8814
 3028SOL    HW2 9709   2.855   4.813   3.536  1.1140  4.2395  0.5864
 3029SOL     OW 9710   0.813   1.818   4.338  0.7439 -0.3340 -0.0999
 3029SOL    HW1 9711   0.786   1.913   4.326  0.2376 -0.2160  1.7858
 3029SOL    HW2 9712   0.740   1.767   4.383  0.2674 -2.0908 -2.6100
 3030SOL     OW 9713   0.255   0.867   3.117  0.5890 -0.2670  0.1701
 3030SOL    HW1 9714   0.351   0.870   3.144  1.5628  2.3030 -2.9189
 3030SOL    HW2 9715   0.245   0.812   3.035 -0.1309  1.2639 -0.8115
 3031SOL     OW 9716   0.070   1.473   0.633  0.2270  0.0198  0.7899
 3031SOL    HW1 9717   0.063   1.388   0.687  5.8436 -0.6896  1.0002
 3031SOL    HW2 9718   0.139   1.461   0.561 -2.4642  2.9829 -2.6383
 3032SOL     OW 9719   0.058   2.873   1.618 -0.3408 -0.1159 -0.1047
 3032SOL    HW1 9720   0.026   2.783   1.649 -1.2269  0.0404 -0.5534
 3032SOL    HW2 9721   0.070   2.871   1.518  0.3966  0.0380 -0.0260
 3033SOL     OW 9722   1.130   1.388   2.922 -0.9087 -0.2537  0.7954
 3033SOL    HW1 9723   1.077   1.469   2.900  1.8324  3.1490  5.0457
 3033SOL    HW2 9724   1.073   1.324   2.975 -2.1378  0.7367  0.7016
 3034SOL     OW 9725   0.113   0.174   3.451 -0.5237 -0.0369  0.0195
 3034SOL    HW1 9726   0.087   0.077   3.455  0.0839 -0.2866 -1.3732
 3034SOL    HW2 9727   0.207   0.185   3.483 -1.4918  0.5510  2.9436
 3035SOL     OW 9728   0.836   3.214   4.365 -0.5310  0.5762  0.3647
 3035SOL    HW1 9729   0.861   3.137   4.307 -0.5552  0.3669  0.6291
 3035SOL    HW2 9730   0.842   3.299   4.313  2.2531  0.7528  0.7737
 3036SOL     OW 9731   0.456   0.953   4.828  0.0397 -0.1931  0.1028
 3036SOL    HW1 9732   0.505   1.040   4.829 -1.0412  0.6668 -3.9010
 3036SOL    HW2 9733   0.519   0.878   4.846  1.8420  1.1796 -0.2750
 3037SOL     OW 9734   4.350   1.275   2.224  0.5021  0.3072  0.5778
 3037SOL    HW1 9735   4.288   1.197   2.232 -0.4236  0.8602 -0.8328
 3037SOL    HW2 9736   4.361   1.318   2.314 -2.1857  0.9366  0.6908
 3038SOL     OW 9737   1.348   4.184   2.345 -0.5908  0.0773 -0.1697
 3038SOL    HW1 9738   1.321   4.088   2.346 -0.0386 -0.1683 -2.9152
 3038SOL    HW2 9739   1.313   4.229   2.263  4.0643  0.6273 -2.1783
 3039SOL     OW 9740   2.553   1.779   2.957 -0.3758  0.1130  0.3262
 3039SOL    HW1 9741   2.610   1.837   2.900 -2.2416 -0.5831 -2.4241
 3039SOL    HW2 9742   2.573   1.683   2.939 -0.7035 -0.1286  1.1694
 3040SOL     OW 9743   0.859   2.685   4.674 -0.3338  0.5056  0.1801
 3040SOL    HW1 9744   0.785   2.752   4.672 -2.8295 -2.0443 -0.7344
 3040SOL    HW2 9745   0.884   2.659   4.581  2.3495  1.7975  0.4345
 3041SOL     OW 9746   4.451   3.155   2.709 -0.1809 -0.7099 -0.0885
 3041SOL    HW1 9747   4.496   3.144   2.797  0.5698 -0.5292 -0.4362
 3041SOL    HW2 9748   4.428   3.251   2.695 -2.6172 -1.0890  0.9938
 3042SOL     OW 9749   4.491   4.197   1.934  0.2674 -0.6397 -0.2135
 3042SOL    HW1 9750   4.556   4.251   1.880 -1.6381 -1.9555 -4.2031
 3042SOL    HW2 9751   4.489   4.103   1.900 -2.1369 -1.2002  1.2272
 3043SOL     OW 9752   4.741   2.038   2.018 -0.9045  0.0655  0.4244
 3043SOL    HW1 9753   4.732   1.945   2.053  0.5864  0.2479  1.4232
 3043SOL    HW2 9754   4.666   2.059   1.956 -0.6294 -2.2239 -0.7796
 3044SOL     OW 9755   0.820   0.641   0.508  0.1265  0.4321 -0.2692
 3044SOL    HW1 9756   0.903   0.653   0.563  0.7820  0.4458 -1.2216
 3044SOL    HW2 9757   0.820   0.709   0.434 -0.0452 -0.4361 -1.0854
 3045SOL     OW 9758   2.227   1.323   2.729 -0.9501 -0.0645 -0.7182
 3045SOL    HW1 9759   2.253   1.400   2.787 -2.5924 -0.1171  0.1661
 3045SOL    HW2 9760   2.198   1.357   2.640  0.0857  0.1587 -0.9829
 3046SOL     OW 9761   0.694   4.820   3.269 -0.3153  0.7316  0.2926
 3046SOL    HW1 9762   0.793   4.805   3.276 -0.7526 -3.3025  0.6783
 3046SOL    HW2 9763   0.662   4.871   3.348  0.9753 -2.2211  2.9783
 3047SOL     OW 9764   3.375   2.155   2.324  0.5653 -0.3202 -0.3592
 3047SOL    HW1 9765   3.429   2.071   2.331 -0.9531 -1.2045  1.7450
 3047SOL    HW2 9766   3.318   2.151   2.242  0.6316 -1.2850 -0.3704
 3048SOL     OW 9767   3.191   4.315   2.009 -0.2223 -0.1215  0.4427
 3048SOL    HW1 9768   3.278   4.292   1.965  0.4521 -2.9911  2.9177
 3048SOL    HW2 9769   3.116   4.295   1.946  0.7977  1.7397 -1.4853
 3049SOL     OW 9770   2.203   0.327   2.288 -0.4955  0.3799  0.2243
 3049SOL    HW1 9771   2.142   0.401   2.320 -2.3861  0.5524 -3.3148
 3049SOL    HW2 9772   2.148   0.249   2.259  1.4141 -1.9983  2.4752
 3050SOL     OW 9773   4.306   2.926   2.696 -0.6449  0.0065 -0.2839
 3050SOL    HW1 9774   4.362   3.008   2.682 -2.8694  1.3064 -2.1754
 3050SOL    HW2 9775   4.270   2.925   2.789  1.2039 -0.0896  0.4871
 3051SOL     OW 9776   2.570   3.462   0.706  0.2197 -0.7099 -0.5013
 3051SOL    HW1 9777   2.505   3.408   0.760 -0.3052 -0.6899 -1.1072
 3051SOL    HW2 9778   2.551   3.559   0.718  3.2348 -0.3361  3.3038
 3052SOL     OW 9779   3.853   0.016   2.244  0.5517  0.2461  0.2889
 3052SOL    HW1 9780   3.899  -0.052   2.302  0.1736 -0.2739 -0.0078
 3052SOL    HW2 9781   3.889   0.107   2.263 -0.7568  0.3623  2.6619
 3053SOL     OW 9782   4.568   1.407   2.385  0.2606  0.2672 -0.2979
 3053SOL    HW1 9783   4.609   1.498   2.394  1.7180 -0.2198 -1.5807
 3053SOL    HW2 9784   4.638   1.341   2.356 -0.2744 -1.7480  2.5520
 3054SOL     OW 9785   1.262   0.536   1.135 -0.0711 -0.4221 -0.6498
 3054SOL    HW1 9786   1.292   0.523   1.041  1.9537 -1.7516  0.1111
 3054SOL    HW2 9787   1.284   0.629   1.165 -4.6159  1.6344 -2.6931
 3055SOL     OW 9788   1.438   0.623   2.078 -0.3586 -0.9782  0.4763
 3055SOL    HW1 9789   1.480   0.691   2.018  2.0495 -2.9704 -0.2373
 3055SOL    HW2 9790   1.393   0.669   2.155  1.5072  1.3858  0.2384
 3056SOL     OW 9791   0.996   1.378   4.944  0.4028 -1.3162  0.1872
 3056SOL    HW1 9792   0.931   1.447   4.976  0.2773  1.5134 -4.9835
 3056SOL    HW2 9793   1.073   1.423   4.898 -1.0344 -4.0998 -6.1060
 3057SOL     OW 9794   4.962   2.197   2.040 -0.0259  0.0580  0.0175
 3057SOL    HW1 9795   4.969   2.142   2.123 -0.5165  0.8837  0.6250
 3057SOL    HW2 9796   4.892   2.159   1.980  2.5374 -2.5188 -1.6219
 3058SOL     OW 9797   1.865   2.102   3.097  0.5526 -0.7988  0.3579
 3058SOL    HW1 9798   1.900   2.108   3.190  1.4626 -1.7306  0.0880
 3058SOL    HW2 9799   1.838   2.007   3.078 -0.3899 -0.4608 -0.0695
 3059SOL     OW 9800   4.885   3.211   0.688 -0.0125  0.4614  0.4715
 3059SOL    HW1 9801   4.893   3.130   0.745  3.5047  1.3262  1.4700
 3059SOL    HW2 9802   4.875   3.292   0.747  0.9468  1.1076 -0.2166
 3060SOL     OW 9803   1.094   4.960   1.269  0.0418 -0.3322  0.9343
 3060SOL    HW1 9804   1.125   5.022   1.341 -0.2558  2.4257 -1.1705
 3060SOL    HW2 9805   1.174   4.917   1.226  0.8412  2.7105 -0.9732
 3061SOL     OW 9806   3.583   0.974   2.747 -0.3786 -0.4217 -0.4281
 3061SOL    HW1 9807   3.621   1.050   2.800  0.3236  0.8037 -2.5354
 3061SOL    HW2 9808   3.490   0.996   2.719 -1.5425 -1.9796  1.9445
 3062SOL     OW 9809   3.058   4.952   2.846  0.1569  0.5779  0.8479
 3062SOL    HW1 9810   3.058   4.852   2.851  0.7691  0.4520 -1.0414
 3062SOL    HW2 9811   2.992   4.983   2.778  3.0610  1.1561 -1.9502
 3063SOL     OW 9812   2.853   3.159   3.891  0.4121  0.3641 -0.0112
 3063SOL    HW1 9813   2.947   3.164   3.925  0.8051 -1.6696 -0.6624
 3063SOL    HW2 9814   2.820   3.065   3.896 -1.2458  0.8589 -0.7292
 3064SOL     OW 9815   3.874   4.674   4.100 -0.0248 -0.0275 -0.0688
 3064SOL    HW1 9816   3.829   4.594   4.139  0.3165  0.6612  1.8827
 3064SOL    HW2 9817   3.967   4.681   4.136  0.0552  1.0697 -0.4507
 3065SOL     OW 9818   0.115   3.422   3.761  0.3066 -0.9844  0.4437
 3065SOL    HW1 9819   0.025   3.381   3.743  0.5850 -0.9348 -1.2571
 3065SOL    HW2 9820   0.102   3.519   3.782 -0.1569 -1.3608  2.0074
 3066SOL     OW 9821   2.328   0.094   4.898  0.2594 -0.8924 -0.4658
 3066SOL    HW1 9822   2.293   0.179   4.937 -3.3293 -0.4435 -4.0211
 3066SOL    HW2 9823   2.338   0.026   4.970 -0.1289  1.4908  1.9906
 3067SOL     OW 9824   4.544   3.425   2.168  0.1450  0.1455 -0.7920
 3067SOL    HW1 9825   4.613   3.407   2.099 -0.3339  0.2252 -1.2957
 3067SOL    HW2 9826   4.457   3.448   2.124  0.1231  1.3151 -0.1765
 3068SOL     OW 9827   0.454   0.031   0.292 -0.0286  0.3898 -0.1782
 3068SOL    HW1 9828   0.465  -0.040   0.362 -1.6973  1.1076  0.8526
 3068SOL    HW2 9829   0.488   0.118   0.327 -0.6650  0.7079 -0.3519
 3069SOL     OW 9830   3.829   4.470   4.275 -0.4232  0.4515  0.2196
 3069SOL    HW1 9831   3.738   4.432   4.260 -0.8242  1.5239 -0.1227
 3069SOL    HW2 9832   3.832   4.514   4.364 -0.9269  2.3137 -0.6423
 3070SOL     OW 9833   0.547   4.309   1.747  0.8961 -0.7097  0.2622
 3070SOL    HW1 9834   0.488   4.335   1.670  2.1368  0.4612 -0.3150
 3070SOL    HW2 9835   0.499   4.240   1.802 -1.9422  1.6671  1.0408
 3071SOL     OW 9836   3.190   2.709   1.488 -0.4318 -0.3334 -0.6731
 3071SOL    HW1 9837   3.217   2.613   1.489  0.4856 -0.0816 -0.6734
 3071SOL    HW2 9838   3.265   2.766   1.521 -0.8636  0.4094 -0.9385
 3072SOL     OW 9839   4.928   4.544   4.365 -1.1305  0.3483 -0.4630
 3072SOL    HW1 9840   4.884   4.617   4.313 -3.3428 -1.7347 -1.7080
 3072SOL    HW2 9841   4.956   4.471   4.302  1.9370  0.4616  0.6084
 3073SOL     OW 9842   3.895   2.536   2.593  0.5770  0.1329  0.1078
 3073SOL    HW1 9843   3.840   2.612   2.629  0.5472 -1.1776  3.1280
 3073SOL    HW2 9844   3.864   2.513   2.501 -1.4692  1.7537  0.3062
 3074SOL     OW 9845   3.847   3.556   4.760 -0.0356 -0.0065  0.1794
 3074SOL    HW1 9846   3.764   3.522   4.804  0.3687 -2.9210 -1.0678
 3074SOL    HW2 9847   3.870   3.497   4.683  4.1525 -0.3883  1.4684
 3075SOL     OW 9848   2.338   0.580   0.178 -0.3975 -0.2531  0.4039
 3075SOL    HW1 9849   2.245   0.598   0.146  0.0603  1.5520  0.0197
 3075SOL    HW2 9850   2.404   0.625   0.117  0.8339 -2.6514 -0.1562
 3076SOL     OW 9851   3.189   0.571   2.763 -0.1892 -0.3008  0.4821
 3076SOL    HW1 9852   3.160   0.484   2.802  0.5762 -0.9522 -0.3578
 3076SOL    HW2 9853   3.287   0.584   2.778 -0.6317  1.3712  2.3337
 3077SOL     OW 9854   3.615   4.887   3.432  0.3321  0.1007 -0.1482
 3077SOL    HW1 9855   3.712   4.863   3.444 -0.1274 -1.1218  1.4860
 3077SOL    HW2 9856   3.579   4.925   3.517 -0.8189 -0.1984 -0.4832
 3078SOL     OW 9857   4.076   2.343   4.652  0.1827 -0.7882  0.8190
 3078SOL    HW1 9858   4.080   2.287   4.736  0.4571  0.5331  1.7223
 3078SOL    HW2 9859   3.983   2.374   4.638 -0.0963 -1.9486 -0.0336
 3079SOL     OW 9860   3.039   4.228   4.421  0.2722 -0.9459 -0.4132
 3079SOL    HW1 9861   2.974   4.159   4.387 -2.9792  1.7999 -0.2977
 3079SOL    HW2 9862   3.116   4.235   4.357 -2.7201 -0.0102 -4.3215
 3080SOL     OW 9863   0.203   4.299   3.224  0.2151 -0.2196  0.2497
 3080SOL    HW1 9864   0.207   4.293   3.324  1.6302  1.6648  0.3614
 3080SOL    HW2 9865   0.125   4.355   3.197  0.0574 -0.4089  0.3092
 3081SOL     OW 9866   3.866   0.944   4.841  0.6354 -0.1050  0.2810
 3081SOL    HW1 9867   3.823   0.915   4.756 -0.2499  0.2105  0.6056
 3081SOL    HW2 9868   3.919   0.868   4.879 -2.6624 -1.8871  1.7768
 3082SOL     OW 9869   0.768   0.677   4.489 -0.2200  0.3550  0.2162
 3082SOL    HW1 9870   0.798   0.764   4.528  1.6802  1.1690 -2.7275
 3082SOL    HW2 9871   0.712   0.694   4.408 -2.0143 -1.2374  1.0419
 3083SOL     OW 9872   1.999   2.626   0.856  0.9984 -0.4987  0.3696
 3083SOL    HW1 9873   1.974   2.619   0.760  1.4589 -3.6220  0.3715
 3083SOL    HW2 9874   2.034   2.718   0.875 -1.9456  1.2138 -1.6477
 3084SOL     OW 9875   4.084   2.957   2.069 -0.7674  0.3359  0.5354
 3084SOL    HW1 9876   4.159   2.960   2.004 -0.5266 -1.6018  0.6465
 3084SOL    HW2 9877   4.118   2.974   2.161 -0.5212 -0.0968  0.5283
 3085SOL     OW 9878   0.318   0.885   0.445  0.4286 -0.4788  0.5305
 3085SOL    HW1 9879   0.317   0.976   0.405  0.8845 -0.0448  1.4807
 3085SOL    HW2 9880   0.224   0.853   0.459  0.2679 -0.3846 -0.2938
 3086SOL     OW 9881   2.167   2.007   4.054  0.3820  0.5880 -0.9862
 3086SOL    HW1 9882   2.145   1.918   4.016  2.0847  0.6988 -2.3743
 3086SOL    HW2 9883   2.084   2.062   4.062 -0.8596 -1.3955  0.8166
 3087SOL     OW 9884   0.196   1.846   1.346 -0.1296  0.3653 -0.3709
 3087SOL    HW1 9885   0.293   1.866   1.330 -0.1300 -0.8675 -2.3164
 3087SOL    HW2 9886   0.147   1.849   1.260 -1.1076 -2.4538 -0.0278
 3088SOL     OW 9887   0.887   0.002   4.107  0.2405  0.6268  0.5611
 3088SOL    HW1 9888   0.811   0.057   4.072  0.4368  0.7921  0.3967
 3088SOL    HW2 9889   0.950   0.060   4.158  0.6561  0.6299  0.0502
 3089SOL     OW 9890   3.054   4.771   4.637  0.5637  0.5932 -0.0316
 3089SOL    HW1 9891   3.076   4.839   4.567 -0.6451  2.3215  1.1957
 3089SOL    HW2 9892   3.004   4.695   4.595  2.1216  0.2847 -1.4680
 3090SOL     OW 9893   4.708   3.131   3.783 -0.6405  0.2779  0.5408
 3090SOL    HW1 9894   4.645   3.060   3.753 -1.2022  0.0158  2.2672
 3090SOL    HW2 9895   4.791   3.088   3.819 -0.7277  0.5194  1.0302
 3091SOL     OW 9896   1.463   4.457   4.796 -0.3441  0.5284  0.0740
 3091SOL    HW1 9897   1.409   4.373   4.803 -2.6404  1.7934 -1.0453
 3091SOL    HW2 9898   1.549   4.438   4.749 -0.3929 -1.3396  0.6673
 3092SOL     OW 9899   4.676   2.415   0.356  0.3812  0.0503  0.1389
 3092SOL    HW1 9900   4.639   2.503   0.386 -1.8332 -0.7373 -0.1416
 3092SOL    HW2 9901   4.691   2.357   0.436  0.5401  0.1769  0.2038
 3093SOL     OW 9902   4.509   2.416   1.255 -0.4520  0.2153 -0.4819
 3093SOL    HW1 9903   4.580   2.432   1.187 -0.0955 -1.7786 -0.6222
 3093SOL    HW2 9904   4.510   2.321   1.283 -0.5563  0.9775  2.3856
 3094SOL     OW 9905   2.138   3.571   1.731 -0.4679  0.5594 -0.1472
 3094SOL    HW1 9906   2.159   3.661   1.693  1.1419  0.9452  1.4988
 3094SOL    HW2 9907   2.123   3.580   1.830 -2.1038 -0.7321 -0.2583
 3095SOL     OW 9908   1.473   0.459   1.851  0.6228 -0.5365 -0.4164
 3095SOL    HW1 9909   1.496   0.534   1.789  1.0760  0.7234  1.2048
 3095SOL    HW2 9910   1.463   0.494   1.944 -0.5897 -2.2779  0.1630
 3096SOL     OW 9911   2.346   1.350   3.704  1.0631  0.9882  1.0726
 3096SOL    HW1 9912   2.320   1.423   3.640 -2.1036 -0.1688  0.8420
 3096SOL    HW2 9913   2.400   1.281   3.656  2.1515  2.0359  0.7277
 3097SOL     OW 9914   4.654   0.839   1.972 -0.7230  0.8622  0.1552
 3097SOL    HW1 9915   4.616   0.751   1.945  2.1072 -0.8078  1.1679
 3097SOL    HW2 9916   4.753   0.831   1.982 -0.4905  3.8760  1.4339
 3098SOL     OW 9917   3.268   1.342   1.963  0.4630 -0.2924  0.3354
 3098SOL    HW1 9918   3.178   1.374   1.993 -0.1760 -0.9282 -0.8083
 3098SOL    HW2 9919   3.335   1.415   1.974 -0.8506  1.3468 -1.8063
 3099SOL     OW 9920   4.706   1.722   4.283  0.0396 -0.4709 -0.5289
 3099SOL    HW1 9921   4.631   1.680   4.333 -0.3243  1.3004  0.4785
 3099SOL    HW2 9922   4.793   1.691   4.320 -0.1937 -1.3307 -0.6806
 3100SOL     OW 9923   0.689   0.072   3.397  0.1237 -0.1906  0.6355
 3100SOL    HW1 9924   0.720   0.139   3.330 -1.5444  1.3601  1.3250
 3100SOL    HW2 9925   0.765   0.048   3.458  0.9528  0.4226 -0.1347
 3101SOL     OW 9926   2.716   1.552   4.906 -0.3344  0.6501  0.0595
 3101SOL    HW1 9927   2.658   1.487   4.857  1.0398 -1.7587  1.4503
 3101SOL    HW2 9928   2.696   1.547   5.004  0.5584  1.5170  0.3003
 3102SOL     OW 9929   2.119   2.499   0.166  0.5561  0.5573  0.4042
 3102SOL    HW1 9930   2.086   2.563   0.236  1.3647  0.8852  0.4934
 3102SOL    HW2 9931   2.120   2.544   0.077 -0.7170  0.0622  0.1150
 3103SOL     OW 9932   3.087   2.261   3.897 -0.0852  0.7736 -0.3609
 3103SOL    HW1 9933   3.066   2.345   3.947  0.4847 -0.3360  1.8613
 3103SOL    HW2 9934   3.135   2.197   3.957 -0.1767 -1.0193 -2.0896
 3104SOL     OW 9935   4.067   4.632   2.902  0.7409  0.5641  0.3093
 3104SOL    HW1 9936   4.106   4.551   2.858  0.1567  0.3504  0.1754
 3104SOL    HW2 9937   4.020   4.605   2.986  1.8011  0.9660  1.0367
 3105SOL     OW 9938   4.072   3.675   2.202  0.1578  0.0033  0.8640
 3105SOL    HW1 9939   4.156   3.660   2.148 -0.7282 -0.8041 -0.3430
 3105SOL    HW2 9940   4.007   3.602   2.183 -0.6945  0.4247  2.0692
 3106SOL     OW 9941   3.949   1.500   3.898  1.3353  0.2756 -0.3464
 3106SOL    HW1 9942   3.931   1.574   3.833  1.0001  0.6073  0.1134
 3106SOL    HW2 9943   4.046   1.477   3.896  2.0615  2.7560  1.5959
 3107SOL     OW 9944   2.901   0.828   0.968  0.3313  0.9366 -0.8668
 3107SOL    HW1 9945   2.852   0.862   0.888 -3.1323 -1.1276  0.1802
 3107SOL    HW2 9946   2.874   0.882   1.048  2.0595  1.5572 -0.6553
 3108SOL     OW 9947   4.512   1.661   3.396  0.0065  0.3103 -0.2029
 3108SOL    HW1 9948   4.502   1.639   3.299 -2.4361 -1.7680  0.3959
 3108SOL    HW2 9949   4.439   1.723   3.424 -0.8093 -1.0174  0.7456
 3109SOL     OW 9950   0.859   2.892   0.330  0.8028 -0.1580  0.2049
 3109SOL    HW1 9951   0.784   2.926   0.387  0.6673  0.0720 -0.1074
 3109SOL    HW2 9952   0.932   2.857   0.389  0.5363 -0.1974  0.5134
 3110SOL     OW 9953   1.951   2.418   4.644 -0.2197  1.0831  0.1788
 3110SOL    HW1 9954   1.905   2.393   4.558 -0.7510 -1.4977  1.1028
 3110SOL    HW2 9955   2.044   2.449   4.624 -0.1188 -0.0432 -1.3370
 3111SOL     OW 9956   4.829   1.165   3.980 -0.2696 -0.5290  0.4599
 3111SOL    HW1 9957   4.784   1.248   4.013 -1.7578 -0.0273 -2.5569
 3111SOL    HW2 9958   4.865   1.180   3.888  0.2334 -2.9657  0.1949
 3112SOL     OW 9959   4.318   3.148   3.297  0.3134 -0.6257 -0.3156
 3112SOL    HW1 9960   4.344   3.067   3.349  1.9064  0.6283  0.9583
 3112SOL    HW2 9961   4.294   3.222   3.361  0.6669  0.4499 -1.3904
 3113SOL     OW 9962   4.836   1.482   2.440  0.3579  0.2070 -1.0172
 3113SOL    HW1 9963   4.809   1.433   2.522 -0.2887  1.9521 -0.1332
 3113SOL    HW2 9964   4.896   1.558   2.464 -2.9990  3.2893 -1.4988
 3114SOL     OW 9965   3.127   4.934   4.395 -0.5047  0.1097  0.2719
 3114SOL    HW1 9966   3.185   4.997   4.448  0.8131  1.5173 -2.6279
 3114SOL    HW2 9967   3.184   4.862   4.355 -0.7563  1.1628 -2.1307
 3115SOL     OW 9968   0.063   0.745   0.824  0.0054  0.4530  0.3586
 3115SOL    HW1 9969   0.136   0.795   0.871  3.8530 -2.4524 -1.9349
 3115SOL    HW2 9970   0.021   0.681   0.888  1.4436  0.2324  1.1325
 3116SOL     OW 9971   4.766   3.296   2.268 -0.0567  0.0296 -0.1875
 3116SOL    HW1 9972   4.809   3.384   2.289 -0.7036  0.0597  1.1149
 3116SOL    HW2 9973   4.832   3.237   2.221  0.9814  0.5557  0.5748
 3117SOL     OW 9974   4.292   1.706   3.142 -0.4531  0.8653 -0.1176
 3117SOL    HW1 9975   4.285   1.618   3.095  1.8283  1.3249 -1.4445
 3117SOL    HW2 9976   4.296   1.779   3.075  2.2806  1.6092  0.7507
 3118SOL     OW 9977   3.339   0.985   2.635  0.5529 -0.0113  0.0155
 3118SOL    HW1 9978   3.341   0.961   2.537 -2.3938  0.3987 -0.2376
 3118SOL    HW2 9979   3.277   0.923   2.683  3.2619 -1.3213  2.0609
 3119SOL     OW 9980   2.278   3.322   3.652 -0.5558 -0.3908 -0.4150
 3119SOL    HW1 9981   2.268   3.406   3.600  0.1746 -1.3170 -2.1129
 3119SOL    HW2 9982   2.271   3.243   3.591 -2.6180 -1.6715  1.3115
 3120SOL     OW 9983   4.335   4.908   4.320  0.7855 -0.3760 -0.3376
 3120SOL    HW1 9984   4.283   4.842   4.374  0.1852  0.8514  0.6320
 3120SOL    HW2 9985   4.405   4.950   4.378 -0.1773  1.3053 -0.3135
 3121SOL     OW 9986   2.563   4.189   0.187  0.4640 -0.4063 -0.0270
 3121SOL    HW1 9987   2.598   4.235   0.105 -1.0913  1.0817  0.0870
 3121SOL    HW2 9988   2.467   4.211   0.199 -0.0711 -2.8007  0.7308
 3122SOL     OW 9989   2.020   3.575   0.910  0.2293 -0.2759  0.3901
 3122SOL    HW1 9990   2.090   3.526   0.962 -0.7563  0.3157  2.3428
 3122SOL    HW2 9991   2.043   3.673   0.907  1.9764 -0.6356 -3.1462
 3123SOL     OW 9992   2.847   0.447   1.761  0.3481 -0.2358 -0.1352
 3123SOL    HW1 9993   2.870   0.350   1.771  0.0739 -0.6315 -2.7237
 3123SOL    HW2 9994   2.924   0.503   1.792  1.5870 -1.3615 -1.0782
 3124SOL     OW 9995   2.080   4.175   0.490 -0.3690  0.3991  0.4437
 3124SOL    HW1 9996   2.002   4.237   0.480 -1.7570 -1.3405 -0.1100
 3124SOL    HW2 9997   2.074   4.127   0.578  0.6502  0.9754  0.8403
 3125SOL     OW 9998   0.539   0.005   4.410  0.7243 -0.8286  0.1001
 3125SOL    HW1 9999   0.510  -0.051   4.488 -0.2164 -0.6919 -0.1367
 3125SOL    HW210000   0.500   0.097   4.419 -0.1418 -1.0755 -0.9843
 3126SOL     OW10001   3.448   2.445   2.338  0.0215  0.1026  0.9341
 3126SOL    HW110002   3.450   2.384   2.259  2.1971 -0.3935  1.2995
 3126SOL    HW210003   3.412   2.396   2.417 -1.1202  0.2636  0.5315
 3127SOL     OW10004   1.043   4.683   3.205 -0.2080 -0.0966  0.4926
 3127SOL    HW110005   0.953   4.642   3.196  0.4000 -1.4247  0.2279
 3127SOL    HW210006   1.101   4.654   3.128 -0.1901  2.5223 -0.6272
 3128SOL     OW10007   3.128   4.270   3.684 -0.3355 -0.2018  0.6717
 3128SOL    HW110008   3.145   4.271   3.585  1.3225  0.1206  0.9357
 3128SOL    HW210009   3.089   4.181   3.710  3.1995 -2.0415  0.2992
 3129SOL     OW10010   3.385   0.497   1.494  0.5340  0.4041  0.0188
 3129SOL    HW110011   3.470   0.489   1.443 -0.5200 -1.5255 -1.6013
 3129SOL    HW210012   3.309   0.513   1.430 -0.6319 -0.4053  1.1425
 3130SOL     OW10013   3.163   4.670   0.096  1.2165 -0.3242  0.2195
 3130SOL    HW110014   3.118   4.625   0.018  1.8898 -1.4736  0.4713
 3130SOL    HW210015   3.260   4.648   0.095  1.0594 -1.2307  1.9636
 3131SOL     OW10016   1.679   4.151   3.936  0.1696  0.3655  1.2858
 3131SOL    HW110017   1.677   4.244   3.973  1.2856  0.5050  1.0392
 3131SOL    HW210018   1.750   4.098   3.984  2.0116  0.6995 -0.8954
 3132SOL     OW10019   4.713   2.198   0.161 -0.1801 -0.4202 -0.1360
 3132SOL    HW110020   4.700   2.229   0.067 -0.0284 -0.5829 -0.2120
 3132SOL    HW210021   4.759   2.269   0.213 -1.5719  0.2704  0.2037
 3133SOL     OW10022   2.045   0.128   0.034  0.5176 -0.0857  0.2373
 3133SOL    HW110023   2.039   0.076   0.120  0.6969  0.4572  0.5858
 3133SOL    HW210024   2.050   0.225   0.055 -0.6520  0.1351 -0.4325
 3134SOL     OW10025   1.127   4.725   1.461  0.3931  0.1586 -0.9610
 3134SOL    HW110026   1.138   4.714   1.362 -1.2378  1.4520 -1.3353
 3134SOL    HW210027   1.030   4.728   1.484  0.7224  1.5918  0.4401
 3135SOL     OW10028   1.107   1.787   4.439 -0.1425 -0.3507  0.7598
 3135SOL    HW110029   1.155   1.874   4.428 -2.2317  1.3598  3.7150
 3135SOL    HW210030   1.015   1.796   4.400 -0.6982 -0.8969  1.9260
 3136SOL     OW10031   4.235   4.885   1.048  0.5424  0.9721 -0.4714
 3136SOL    HW110032   4.258   4.885   0.951 -0.7798  1.1056 -0.7948
 3136SOL    HW210033   4.298   4.824   1.097 -0.7347 -1.6358 -1.8829
 3137SOL     OW10034   1.605   0.223   1.896 -0.2003 -0.0191 -0.1088
 3137SOL    HW110035   1.554   0.308   1.879 -0.2368 -0.2670 -1.3534
 3137SOL    HW210036   1.564   0.174   1.972 -1.7678 -0.1461 -0.9955
 3138SOL     OW10037   3.102   0.901   1.608 -0.2698  0.2278 -0.2010
 3138SOL    HW110038   3.087   0.813   1.564 -0.9313  0.5661 -0.6638
 3138SOL    HW210039   3.073   0.974   1.547 -2.8962  0.6542  1.4037
 3139SOL     OW10040   1.724   3.823   4.786 -0.4845 -0.8128 -0.5851
 3139SOL    HW110041   1.798   3.846   4.723  0.3507  1.3054  1.0400
 3139SOL    HW210042   1.758   3.823   4.880 -1.6372 -4.1031 -0.0432
 3140SOL     OW10043   2.566   2.760   0.284  0.1546  0.0665 -0.1087
 3140SOL    HW110044   2.657   2.795   0.264  0.7846 -0.6178  1.3477
 3140SOL    HW210045   2.533   2.799   0.370  0.2200 -1.6228  0.7452
 3141SOL     OW10046   4.615   2.916   2.227 -0.2402 -0.1133 -0.0766
 3141SOL    HW110047   4.587   2.823   2.204 -0.1086 -0.4410  1.0159
 3141SOL    HW210048   4.565   2.947   2.308 -1.5295  1.4151 -1.3812
 3142SOL     OW10049   4.618   1.451   1.256  0.0616  0.4141  1.0180
 3142SOL    HW110050   4.549   1.385   1.227  0.4292  0.2411  0.5264
 3142SOL    HW210051   4.682   1.407   1.320  0.8942 -0.0027 -0.0753
 3143SOL     OW10052   3.840   0.585   1.780 -0.7308  0.3620 -0.3157
 3143SOL    HW110053   3.887   0.503   1.811 -1.2970 -0.2981 -1.1642
 3143SOL    HW210054   3.837   0.652   1.855  3.6146  1.4537 -0.8397
 3144SOL     OW10055   0.740   4.816   4.620 -0.3742 -0.3205  0.5290
 3144SOL    HW110056   0.658   4.839   4.671 -0.2064  0.3805  0.5051
 3144SOL    HW210057   0.730   4.726   4.578 -0.8247 -0.5602  1.1410
 3145SOL     OW10058   2.819   2.155   3.766 -0.1670  0.2404 -0.4105
 3145SOL    HW110059   2.851   2.247   3.788  2.1575 -0.9703  1.8407
 3145SOL    HW210060   2.817   2.142   3.667  0.5706  2.3379 -0.7370
 3146SOL     OW10061   4.564   1.363   3.205 -0.1745  0.0206 -0.2709
 3146SOL    HW110062   4.566   1.449   3.155  1.6093  0.1617 -0.0216
 3146SOL    HW210063   4.481   1.358   3.261 -2.2664 -0.1602 -3.1784
 3147SOL     OW10064   3.216   2.110   0.000 -0.1549 -0.2699  0.0448
 3147SOL    HW110065   3.291   2.053   0.033 -0.6283 -2.2873 -2.1208
 3147SOL    HW210066   3.200   2.184   0.065  1.0108 -2.1343  2.6395
 3148SOL     OW10067   1.118   2.615   1.278 -0.2297  0.7983 -0.9440
 3148SOL    HW110068   1.040   2.624   1.216 -1.6551 -0.2774  0.6075
 3148SOL    HW210069   1.192   2.564   1.233 -0.2245  2.1534 -2.5628
 3149SOL     OW10070   3.900   1.560   1.987 -0.3404 -0.0582 -0.0530
 3149SOL    HW110071   3.905   1.532   2.083  0.2422  2.5826  0.7833
 3149SOL    HW210072   3.857   1.489   1.933  0.6327 -2.2496  1.9005
 3150SOL     OW10073   3.191   0.246   2.319  0.9887 -0.7849 -0.5177
 3150SOL    HW110074   3.242   0.330   2.300 -0.5029 -0.1938 -2.2225
 3150SOL    HW210075   3.157   0.249   2.413 -4.8048  4.0527 -2.0997
 3151SOL     OW10076   0.743   3.263   2.622  0.9372  0.5446 -0.1441
 3151SOL    HW110077   0.674   3.230   2.686  0.4159  0.7280 -0.6028
 3151SOL    HW210078   0.769   3.188   2.560  3.1255 -0.3231  1.6818
 3152SOL     OW10079   0.568   2.013   0.392 -0.5919  0.1072  0.7149
 3152SOL    HW110080   0.510   2.059   0.325 -2.8586 -0.1666  2.3703
 3152SOL    HW210081   0.612   1.934   0.350 -1.5691  0.2176 -0.5758
 3153SOL     OW10082   2.865   3.048   2.715 -0.1925  0.6542  0.6504
 3153SOL    HW110083   2.803   3.087   2.646  0.8051  2.3307  0.6434
 3153SOL    HW210084   2.940   3.001   2.670 -0.7343 -0.2234  0.6437
 3154SOL     OW10085   3.977   4.416   4.536 -0.1083 -0.0959 -1.0939
 3154SOL    HW110086   3.993   4.448   4.629 -3.7622  2.2982 -1.1152
 3154SOL    HW210087   4.060   4.431   4.481  1.0549  1.5744  0.9578
 3155SOL     OW10088   2.374   2.973   2.712  0.2808  0.7312  0.5523
 3155SOL    HW110089   2.279   2.999   2.692  0.4610 -0.5968 -2.6264
 3155SOL    HW210090   2.379   2.929   2.802 -2.6273 -1.4414 -0.2176
 3156SOL     OW10091   1.680   0.932   3.519 -0.5572  0.7086 -0.7803
 3156SOL    HW110092   1.610   0.927   3.447 -2.4819 -0.8035  1.0738
 3156SOL    HW210093   1.752   0.866   3.499 -0.0736  1.6024 -2.2120
 3157SOL     OW10094   1.923   1.811   4.107  0.3766  0.1808 -0.4784
 3157SOL    HW110095   1.975   1.760   4.176 -0.1192  0.1339 -0.1317
 3157SOL    HW210096   1.830   1.775   4.103 -0.7964  2.6312  1.6033
 3158SOL     OW10097   3.499   3.882   4.411 -0.1207  0.5802  0.1217
 3158SOL    HW110098   3.580   3.824   4.415  0.4550  1.4341  1.4895
 3158SOL    HW210099   3.523   3.970   4.372 -0.0954  1.2287  1.5160
 3159SOL     OW10100   2.480   1.795   4.567  0.2776  0.1712 -0.4526
 3159SOL    HW110101   2.458   1.698   4.564 -0.0106  0.2330 -0.3897
 3159SOL    HW210102   2.410   1.843   4.620  0.9764  0.2601  0.4178
 3160SOL     OW10103   4.155   4.875   2.128 -0.1886  0.5802 -0.3076
 3160SOL    HW110104   4.150   4.788   2.079 -3.5492  1.6655 -2.1610
 3160SOL    HW210105   4.110   4.866   2.217 -0.1670  0.3318 -0.3215
 3161SOL     OW10106   4.014   3.755   4.512  0.4865 -0.1197  0.1803
 3161SOL    HW110107   4.081   3.707   4.455  2.3906  1.4478  0.9956
 3161SOL    HW210108   4.057   3.835   4.555 -1.6254  0.3263  1.6324
 3162SOL     OW10109   2.285   3.265   0.304  0.6664 -0.4303 -0.0920
 3162SOL    HW110110   2.304   3.281   0.207 -0.4474  0.1812 -0.2346
 3162SOL    HW210111   2.282   3.353   0.352 -1.7742 -0.4058 -0.1318
 3163SOL     OW10112   3.898   4.460   2.250 -0.1324  0.6938 -0.0057
 3163SOL    HW110113   3.963   4.500   2.315  0.6283 -3.9913  2.4913
 3163SOL    HW210114   3.942   4.385   2.201 -2.0787  1.2214 -2.8372
 3164SOL     OW10115   3.709   2.405   4.788 -0.0020 -0.0507  0.2132
 3164SOL    HW110116   3.659   2.357   4.716 -0.4035  0.3047  0.2525
 3164SOL    HW210117   3.650   2.419   4.867  0.8740 -1.7505  1.2255
 3165SOL     OW10118   3.542   3.481   4.881  0.5393  0.1860  0.8702
 3165SOL    HW110119   3.540   3.536   4.797  1.2497 -0.9839  0.0677
 3165SOL    HW210120   3.456   3.494   4.931 -0.9227 -0.9123 -1.2306
 3166SOL     OW10121   0.209   4.161   4.244 -0.5495 -0.0739  0.1632
 3166SOL    HW110122   0.231   4.140   4.340  3.4118 -0.9946 -0.7654
 3166SOL    HW210123   0.242   4.088   4.185  1.6141  2.6157 -2.2208
 3167SOL     OW10124   0.169   0.369   4.508 -0.3420  0.2684 -0.4066
 3167SOL    HW110125   0.166   0.409   4.600 -0.7900  0.2094 -0.3920
 3167SOL    HW210126   0.086   0.395   4.458  0.5512  1.5375 -1.3229
 3168SOL     OW10127   4.684   1.725   1.717 -0.3833 -0.1941 -0.7594
 3168SOL    HW110128   4.755   1.661   1.745 -0.9417  0.0168  1.3571
 3168SOL    HW210129   4.595   1.690   1.744 -0.7715  1.0542 -0.3544
 3169SOL     OW10130   3.383   0.274   3.998  0.8739  0.1903  0.8588
 3169SOL    HW110131   3.365   0.372   3.990 -1.4185 -0.1917  0.7299
 3169SOL    HW210132   3.335   0.237   4.077  2.3230 -0.7239  1.3472
 3170SOL     OW10133   2.780   0.882   1.364 -0.6384 -0.8137 -0.1808
 3170SOL    HW110134   2.755   0.933   1.282  0.3912 -2.9789 -1.9343
 3170SOL    HW210135   2.720   0.802   1.373 -2.0533  0.3742  2.3730
 3171SOL     OW10136   3.693   3.979   2.803 -0.6256  0.2147  0.1335
 3171SOL    HW110137   3.640   4.064   2.814  0.2580  0.7051  0.7403
 3171SOL    HW210138   3.679   3.943   2.711  1.3484  2.6848 -1.2350
 3172SOL     OW10139   0.762   2.363   2.770  0.3924 -0.2376 -0.3198
 3172SOL    HW110140   0.782   2.265   2.767  1.7252  0.0340 -1.9324
 3172SOL    HW210141   0.768   2.401   2.677  0.9716  1.5552  0.3982
 3173SOL     OW10142   3.787   2.089   0.897  0.0181  0.6769 -0.1108
 3173SOL    HW110143   3.724   2.042   0.959 -0.0725 -2.7776 -2.5313
 3173SOL    HW210144   3.768   2.062   0.803  3.2552  1.8259 -1.2418
 3174SOL     OW10145   2.929   1.369   2.390  0.1427 -0.4279  0.3213
 3174SOL    HW110146   3.018   1.414   2.380  0.1652 -0.4522  0.4089
 3174SOL    HW210147   2.878   1.376   2.304  0.1910 -0.3328  0.3000
 3175SOL     OW10148   3.128   0.392   0.664 -0.5626 -0.1394  0.5399
 3175SOL    HW110149   3.073   0.450   0.603  0.1100  0.5759  0.6080
 3175SOL    HW210150   3.218   0.377   0.623 -0.2684 -0.0381  1.1449
 3176SOL     OW10151   4.809   1.885   3.127 -0.2459  0.2911  0.1218
 3176SOL    HW110152   4.771   1.936   3.204  0.3529  0.9002  0.0220
 3176SOL    HW210153   4.867   1.811   3.161 -1.2833 -0.4899  0.2708
 3177SOL     OW10154   4.178   4.413   1.177  0.9590 -0.5478 -0.1537
 3177SOL    HW110155   4.128   4.423   1.263  0.4369 -2.4199 -0.2051
 3177SOL    HW210156   4.114   4.422   1.101  1.1037 -0.6429 -0.2863
 3178SOL     OW10157   3.365   1.064   0.923 -0.1681 -0.5865 -0.5497
 3178SOL    HW110158   3.348   1.024   0.833 -0.9150 -1.9931  0.1741
 3178SOL    HW210159   3.294   1.034   0.986  1.7345 -1.7857  1.1539
 3179SOL     OW10160   0.841   3.515   1.470  0.0377  0.3393  0.0842
 3179SOL    HW110161   0.789   3.429   1.475 -0.6680  0.7597  0.0792
 3179SOL    HW210162   0.858   3.538   1.375 -1.9885  1.4956 -0.0560
 3180SOL     OW10163   2.124   2.384   3.846 -0.2051 -1.0621 -0.2158
 3180SOL    HW110164   2.029   2.388   3.815  0.9311  2.3288 -4.2729
 3180SOL    HW210165   2.145   2.466   3.900  0.9490 -0.4187 -1.5776
 3181SOL     OW10166   3.514   3.225   0.326  0.0932  0.6383 -0.4669
 3181SOL    HW110167   3.536   3.322   0.342  2.3209  0.2637 -0.8702
 3181SOL    HW210168   3.516   3.176   0.413 -2.8306  1.2012  0.0112
 3182SOL     OW10169   0.266   4.428   3.827 -0.4329  0.3907 -0.3585
 3182SOL    HW110170   0.331   4.503   3.824  1.1870 -0.8474 -5.1829
 3182SOL    HW210171   0.292   4.363   3.898  0.4957  2.3568  1.1836
 3183SOL     OW10172   4.621   1.830   1.447  0.2162 -0.4884 -0.2679
 3183SOL    HW110173   4.546   1.767   1.425 -0.4178  0.2148 -0.1565
 3183SOL    HW210174   4.630   1.837   1.546 -0.4653  0.4552 -0.2618
 3184SOL     OW10175   3.927   4.851   2.844  0.3548 -0.4930 -0.6090
 3184SOL    HW110176   3.897   4.864   2.938  0.4199  0.7932 -0.7517
 3184SOL    HW210177   3.980   4.766   2.837  0.0914 -0.7551  0.4364
 3185SOL     OW10178   1.790   4.719   1.654 -0.0754  0.0827  0.2047
 3185SOL    HW110179   1.802   4.704   1.556 -2.1754 -1.1918  0.0758
 3185SOL    HW210180   1.786   4.817   1.672  3.3172  0.4440 -0.5067
 3186SOL     OW10181   1.382   4.594   1.963 -0.2153 -0.6606  0.8259
 3186SOL    HW110182   1.337   4.606   1.874 -0.0314  2.7458  1.0793
 3186SOL    HW210183   1.470   4.550   1.950 -1.0930 -2.1654 -0.3644
 3187SOL     OW10184   2.489   3.471   4.560 -0.1973 -1.1966  0.3694
 3187SOL    HW110185   2.401   3.513   4.538 -0.6191 -0.6456  2.8413
 3187SOL    HW210186   2.563   3.529   4.525 -0.8109 -0.1974  0.6775
 3188SOL     OW10187   1.077   4.770   1.853  0.0044  0.3718 -0.3417
 3188SOL    HW110188   1.153   4.798   1.794 -1.8064  0.1179 -2.9490
 3188SOL    HW210189   1.025   4.851   1.880 -1.6620  0.2028 -2.7850
 3189SOL     OW10190   3.788   1.328   3.488 -0.6314 -0.0719 -0.7005
 3189SOL    HW110191   3.822   1.419   3.510 -1.2234 -0.0586  0.2536
 3189SOL    HW210192   3.845   1.287   3.418  0.8614  0.2545  0.2677
 3190SOL     OW10193   0.666   2.285   4.384 -0.4514  0.9271 -0.7947
 3190SOL    HW110194   0.679   2.255   4.479 -1.5379  0.1016 -0.8970
 3190SOL    HW210195   0.743   2.344   4.358  1.2530 -0.9351 -0.2646
 3191SOL     OW10196   4.978   2.943   0.293  0.5903  0.8560  0.8827
 3191SOL    HW110197   5.017   3.030   0.325  1.4112  0.8960 -0.1616
 3191SOL    HW210198   5.028   2.867   0.333  0.8505  0.8863  0.6138
 3192SOL     OW10199   2.513   1.950   1.797  0.2944 -0.3188  0.7990
 3192SOL    HW110200   2.549   1.923   1.886  0.1183 -2.9756  0.1439
 3192SOL    HW210201   2.459   1.875   1.758  0.6622  0.6055 -1.7097
 3193SOL     OW10202   1.764   1.523   2.778  0.6814  0.0040  0.6648
 3193SOL    HW110203   1.822   1.452   2.817 -0.8872 -2.2657 -0.9239
 3193SOL    HW210204   1.671   1.515   2.815  0.3193  0.8196 -0.0275
 3194SOL     OW10205   4.926   1.649   4.395 -0.4764 -0.5979  0.7861
 3194SOL    HW110206   4.925   1.598   4.309 -0.8664  2.6963 -1.3146
 3194SOL    HW210207   5.020   1.662   4.426  0.2721  2.9293 -2.3415
 3195SOL     OW10208   4.973   4.827   0.468 -0.1258 -1.0678 -0.6184
 3195SOL    HW110209   4.987   4.830   0.567  1.1040 -5.8963 -0.3947
 3195SOL    HW210210   4.877   4.807   0.448 -0.7550  1.5702 -0.6300
 3196SOL     OW10211   4.267   1.016   4.341 -0.1468 -0.0744  0.4264
 3196SOL    HW110212   4.227   1.103   4.370 -1.8870 -0.2290 -1.2971
 3196SOL    HW210213   4.194   0.951   4.322  1.0708 -1.3909  0.1303
 3197SOL     OW10214   2.464   3.607   1.735 -0.1397 -0.7497  0.2147
 3197SOL    HW110215   2.384   3.639   1.685  0.3935  0.2308 -0.0436
 3197SOL    HW210216   2.546   3.651   1.698  0.0888  1.8128  3.3279
 3198SOL     OW10217   3.680   0.369   4.800 -0.2331 -0.3556  0.2483
 3198SOL    HW110218   3.594   0.400   4.758 -1.7351 -0.4034  3.0488
 3198SOL    HW210219   3.723   0.445   4.847  0.4829 -0.6784  0.1251
 3199SOL     OW10220   3.638   0.543   4.042  0.8571  0.2176 -1.1772
 3199SOL    HW110221   3.724   0.493   4.024  2.0547  1.0827  1.6329
 3199SOL    HW210222   3.595   0.505   4.124 -0.5655  0.9472 -1.5712
 3200SOL     OW10223   3.763   0.357   0.496  0.8289  0.8607 -0.4089
 3200SOL    HW110224   3.767   0.347   0.595 -1.8310 -0.0714 -0.3181
 3200SOL    HW210225   3.795   0.448   0.470  4.8257  0.0340  0.8848
 3201SOL     OW10226   4.813   4.343   2.069  0.4571 -0.2715  0.7836
 3201SOL    HW110227   4.777   4.331   1.977  1.8787 -3.0517  0.4744
 3201SOL    HW210228   4.886   4.276   2.085 -0.3546 -0.5158  4.2237
 3202SOL     OW10229   3.265   0.823   1.935 -0.5876  0.8544  0.6573
 3202SOL    HW110230   3.263   0.850   1.839  1.0416 -0.3194  0.2442
 3202SOL    HW210231   3.199   0.749   1.950  0.7888 -0.5924 -0.1476
 3203SOL     OW10232   3.507   3.216   4.714 -0.6472 -0.3237  0.1124
 3203SOL    HW110233   3.546   3.270   4.639 -2.1465  1.1989  0.3678
 3203SOL    HW210234   3.580   3.187   4.776  0.3206  0.4611 -0.6198
 3204SOL     OW10235   3.669   4.362   1.058  0.2302 -0.6490  0.2132
 3204SOL    HW110236   3.715   4.364   1.146  1.6931 -0.0554 -0.5237
 3204SOL    HW210237   3.627   4.273   1.044  2.0281 -1.5896  0.5282
 3205SOL     OW10238   4.371   4.887   0.123  1.1690 -0.0696  0.0382
 3205SOL    HW110239   4.347   4.962   0.063 -0.1122  0.0860  0.7276
 3205SOL    HW210240   4.453   4.841   0.087 -0.2672 -0.7913 -2.5341
 3206SOL     OW10241   2.287   1.603   3.577  0.5417 -0.2506  0.0367
 3206SOL    HW110242   2.327   1.654   3.653 -0.7269 -1.1486  1.3775
 3206SOL    HW210243   2.329   1.631   3.491  1.1341  1.7255  0.9210
 3207SOL     OW10244   4.586   0.582   1.963 -0.2862 -0.6121 -0.2971
 3207SOL    HW110245   4.647   0.505   1.980 -0.2150 -1.2488 -2.9544
 3207SOL    HW210246   4.507   0.578   2.024  0.4972 -1.8821  0.6569
 3208SOL     OW10247   4.726   0.977   2.284 -0.0331 -0.3794  0.1940
 3208SOL    HW110248   4.712   0.900   2.222 -0.7530 -1.4203  1.5886
 3208SOL    HW210249   4.790   1.042   2.243  3.3887 -3.3591  0.3466
 3209SOL     OW10250   2.151   4.609   2.278 -0.3535  0.0527 -0.5956
 3209SOL    HW110251   2.052   4.609   2.288 -0.4981 -0.9365 -1.7819
 3209SOL    HW210252   2.176   4.556   2.197  1.3072 -2.2947  1.3231
 3210SOL     OW10253   0.638   3.484   1.848 -0.1390  0.4871 -0.2090
 3210SOL    HW110254   0.581   3.564   1.829 -0.9288 -0.6532 -3.1754
 3210SOL    HW210255   0.733   3.512   1.863 -0.8176  2.1203  1.3493
 3211SOL     OW10256   0.718   1.593   1.902 -0.1211  0.3467  0.1445
 3211SOL    HW110257   0.740   1.625   1.994  2.6113 -2.2542  0.5645
 3211SOL    HW210258   0.662   1.510   1.908 -0.6183  0.6232 -0.5759
 3212SOL     OW10259   2.638   2.564   0.153 -0.5471  0.6534 -1.1631
 3212SOL    HW110260   2.594   2.648   0.185  1.4073  0.9214  1.0291
 3212SOL    HW210261   2.639   2.564   0.053 -0.5445  3.2889 -1.2445
 3213SOL     OW10262   2.840   1.207   1.035 -0.5155  0.7280 -0.4530
 3213SOL    HW110263   2.813   1.263   1.113 -1.3825  0.1572 -0.3273
 3213SOL    HW210264   2.851   1.264   0.954  0.7225  1.3767  0.1451
 3214SOL     OW10265   3.818   4.555   3.075 -0.6658  0.6574  0.0895
 3214SOL    HW110266   3.773   4.513   3.154  1.0607  0.4927  1.0265
 3214SOL    HW210267   3.760   4.627   3.038 -1.4929  0.7595  1.5238
 3215SOL     OW10268   0.580   4.856   0.534  0.4942  0.2787  0.0309
 3215SOL    HW110269   0.661   4.911   0.556  0.6632 -0.5950  1.6699
 3215SOL    HW210270   0.547   4.810   0.616 -2.5097  1.6698 -0.2453
 3216SOL     OW10271   2.257   1.385   4.738  0.2169 -0.2078  0.0931
 3216SOL    HW110272   2.326   1.314   4.724 -0.6464 -1.2717  1.0537
 3216SOL    HW210273   2.289   1.449   4.809  0.3100 -0.5500  0.3600
 3217SOL     OW10274   0.086   4.096   0.075 -0.0791  0.3896 -1.1102
 3217SOL    HW110275   0.074   4.146   0.161 -1.5421  0.2397 -1.2137
 3217SOL    HW210276   0.017   4.124   0.009  0.4649 -0.1607 -1.9424
 3218SOL     OW10277   2.946   2.218   1.598  0.4855 -0.8200  0.1924
 3218SOL    HW110278   2.964   2.317   1.600  0.5623 -0.8465  1.2877
 3218SOL    HW210279   2.869   2.197   1.657  1.1928 -1.5551  0.8730
 3219SOL     OW10280   0.882   2.017   3.800  0.3714 -0.0025  0.4882
 3219SOL    HW110281   0.913   1.998   3.893 -1.9084  0.2250  1.3688
 3219SOL    HW210282   0.906   1.940   3.741 -0.9274 -1.6715  2.0025
 3220SOL     OW10283   3.231   2.218   2.112 -0.0480  0.3585  1.5730
 3220SOL    HW110284   3.151   2.180   2.065 -0.2185  0.6315  1.6406
 3220SOL    HW210285   3.284   2.274   2.048  0.2420 -0.0488  1.4550
 3221SOL     OW10286   3.184   0.503   1.341  0.0105 -0.4528  0.3274
 3221SOL    HW110287   3.212   0.411   1.312  2.0448 -0.2226  1.3915
 3221SOL    HW210288   3.131   0.546   1.268 -0.3677 -2.2054 -0.4722
 3222SOL     OW10289   0.217   3.578   1.483 -0.0785  0.4643  0.1525
 3222SOL    HW110290   0.168   3.582   1.570 -0.8607  1.7006 -0.3245
 3222SOL    HW210291   0.294   3.642   1.485  2.5748 -2.4977  1.4489
 3223SOL     OW10292   1.878   2.877   3.966  0.7537  0.5482  0.2342
 3223SOL    HW110293   1.838   2.840   4.050  0.2120  0.5603 -0.0110
 3223SOL    HW210294   1.977   2.870   3.970  0.7796  1.2169  1.1912
 3224SOL     OW10295   3.416   2.791   3.444  0.0206 -0.5064 -0.5032
 3224SOL    HW110296   3.412   2.883   3.405  1.0220 -1.0643 -2.0131
 3224SOL    HW210297   3.503   2.779   3.492 -0.4544 -0.4103  0.3943
 3225SOL     OW10298   0.885   4.108   2.378 -0.0615 -0.1467 -0.2721
 3225SOL    HW110299   0.948   4.157   2.439 -1.6974  0.2785  1.1577
 3225SOL    HW210300   0.876   4.014   2.409 -0.7490  0.0171  0.0413
 3226SOL     OW10301   2.214   2.596   1.790  0.1503 -0.3489  0.0442
 3226SOL    HW110302   2.212   2.626   1.885 -4.7675  2.4324 -0.6452
 3226SOL    HW210303   2.140   2.531   1.773  1.3723 -1.3629 -1.8056
 3227SOL     OW10304   2.324   0.464   1.421 -0.6277 -0.0087 -0.1193
 3227SOL    HW110305   2.323   0.364   1.411 -1.7362  0.1254 -1.7561
 3227SOL    HW210306   2.373   0.489   1.505 -1.1268 -1.9552  0.8086
 3228SOL     OW10307   1.997   3.900   0.344 -0.4603  0.7754  0.3189
 3228SOL    HW110308   2.007   3.979   0.405  2.7991  0.3879  0.4788
 3228SOL    HW210309   1.946   3.828   0.391 -0.2464  1.4457  1.6242
 3229SOL     OW10310   4.443   3.303   0.978  0.1881 -0.3680 -0.1937
 3229SOL    HW110311   4.460   3.300   0.879  0.0120 -0.3135 -0.2263
 3229SOL    HW210312   4.527   3.280   1.027  0.2798 -0.3828 -0.3564
 3230SOL     OW10313   4.601   4.462   3.319 -0.3161 -0.0928 -1.0381
 3230SOL    HW110314   4.529   4.431   3.257 -2.5180 -0.8999  1.7473
 3230SOL    HW210315   4.676   4.396   3.318 -0.6665 -0.5086 -2.1976
 3231SOL     OW10316   3.619   4.720   2.894 -0.5399  0.1791  0.6379
 3231SOL    HW110317   3.612   4.810   2.936 -0.0280  1.6492 -2.2127
 3231SOL    HW210318   3.555   4.713   2.817 -2.1623 -2.7516  2.0601
 3232SOL     OW10319   3.555   0.637   0.091 -0.8670  0.6576 -0.2187
 3232SOL    HW110320   3.478   0.572   0.084 -0.7236  0.5135 -0.5102
 3232SOL    HW210321   3.631   0.603   0.035 -0.9079  1.2445 -0.6340
 3233SOL     OW10322   4.959   0.147   4.171 -0.9617  0.2198  1.1995
 3233SOL    HW110323   4.911   0.160   4.084  2.6220  0.9497 -0.8236
 3233SOL    HW210324   4.914   0.201   4.242 -2.9107  1.0686 -0.5842
 3234SOL     OW10325   3.185   1.395   1.545 -0.6632 -0.7335 -0.3091
 3234SOL    HW110326   3.183   1.489   1.511  0.6991  0.0365  1.5637
 3234SOL    HW210327   3.264   1.347   1.506  0.2269 -0.2112  0.7883
 3235SOL     OW10328   3.874   1.446   1.689 -0.1251 -0.2894 -0.3818
 3235SOL    HW110329   3.937   1.371   1.709  1.8851  1.5043  0.4054
 3235SOL    HW210330   3.788   1.409   1.654  0.5683 -2.9611  0.5079
 3236SOL     OW10331   2.490   1.056   1.810  0.3896  0.9636 -0.5255
 3236SOL    HW110332   2.468   0.965   1.845 -1.5221  1.5941  0.0291
 3236SOL    HW210333   2.527   1.048   1.717  3.0549 -0.5394  0.5434
 3237SOL     OW10334   1.875   0.136   4.022 -0.4400  0.5351  0.4205
 3237SOL    HW110335   1.933   0.211   3.990  0.7443  0.0184  1.2801
 3237SOL    HW210336   1.779   0.162   4.012 -0.0669  1.8491 -0.0143
 3238SOL     OW10337   2.947   1.593   2.070 -0.2171  0.3102 -0.1364
 3238SOL    HW110338   3.021   1.621   2.132  2.1126 -1.4559 -1.9179
 3238SOL    HW210339   2.933   1.495   2.077 -1.8689  0.5038 -0.4438
 3239SOL     OW10340   3.525   0.796   3.952  0.0033 -0.5459  0.4681
 3239SOL    HW110341   3.554   0.721   3.893  0.3926 -0.2003  0.2128
 3239SOL    HW210342   3.543   0.883   3.907 -2.7195 -0.3018 -0.3109
 3240SOL     OW10343   1.555   2.309   3.823 -0.7448 -0.0805  0.1317
 3240SOL    HW110344   1.571   2.343   3.915 -0.2579 -1.2232  0.4867
 3240SOL    HW210345   1.464   2.267   3.818  0.5214 -3.1517  1.1082
 3241SOL     OW10346   1.722   2.596   4.435 -0.0875  0.5066  0.7172
 3241SOL    HW110347   1.646   2.653   4.466  0.3442  1.2321  0.4507
 3241SOL    HW210348   1.686   2.512   4.396 -0.6833 -0.6041  3.3908
 3242SOL     OW10349   4.207   1.609   4.346 -0.7251  0.8259 -0.3998
 3242SOL    HW110350   4.110   1.625   4.330 -1.1277  1.4596  2.1840
 3242SOL    HW210351   4.245   1.685   4.400  1.1816  0.5126 -1.2175
 3243SOL     OW10352   0.405   1.042   3.829 -0.3486  0.9802 -0.2457
 3243SOL    HW110353   0.313   1.058   3.865 -0.2956 -0.4740  0.6201
 3243SOL    HW210354   0.429   1.116   3.766 -2.1478  1.3443 -0.5777
 3244SOL     OW10355   2.032   4.706   4.821  0.2427 -0.0446  0.0553
 3244SOL    HW110356   2.009   4.769   4.895  0.8562 -1.7904  1.8135
 3244SOL    HW210357   2.067   4.757   4.743  3.8407  1.6898  2.5266
 3245SOL     OW10358   0.112   2.835   2.383  0.1169 -0.2769  0.5488
 3245SOL    HW110359   0.119   2.894   2.464 -0.3810 -0.7217  0.9231
 3245SOL    HW210360   0.017   2.811   2.367  0.3615 -1.4889  0.7877
 3246SOL     OW10361   3.684   3.998   3.882 -0.2087 -0.1299  0.2405
 3246SOL    HW110362   3.747   4.069   3.852  0.4392 -0.2599  1.2805
 3246SOL    HW210363   3.662   4.010   3.979 -1.7104 -0.1431 -0.0647
 3247SOL     OW10364   2.570   2.040   2.263  0.0823 -0.0079 -0.4317
 3247SOL    HW110365   2.492   2.100   2.246  0.1273  0.1756  0.0107
 3247SOL    HW210366   2.647   2.094   2.297 -0.7024 -0.6383  2.6064
 3248SOL     OW10367   3.657   3.133   2.937 -0.5537  0.4518 -0.4927
 3248SOL    HW110368   3.683   3.055   2.881 -0.8136 -0.1286  0.1686
 3248SOL    HW210369   3.564   3.119   2.973  0.4129 -0.3010  1.9152
 3249SOL     OW10370   3.422   2.933   0.185  0.3528  0.1134 -0.0319
 3249SOL    HW110371   3.442   2.853   0.130  1.6915  0.6521 -0.3677
 3249SOL    HW210372   3.507   2.982   0.205 -0.3827  1.1911  0.5593
 3250SOL     OW10373   3.163   3.303   4.737  0.0779  1.0546 -0.0884
 3250SOL    HW110374   3.230   3.370   4.704 -0.1122  1.3632  0.1433
 3250SOL    HW210375   3.210   3.227   4.782  0.6101 -0.9899 -3.6991
 3251SOL     OW10376   0.524   0.915   2.893 -0.2576  0.1387 -0.2155
 3251SOL    HW110377   0.435   0.875   2.914  0.1079 -0.8138 -0.4340
 3251SOL    HW210378   0.551   0.976   2.967  1.0883 -3.2815  2.3550
 3252SOL     OW10379   3.412   2.587   2.596  0.6958 -0.0456  0.2442
 3252SOL    HW110380   3.460   2.576   2.509  1.9721 -1.0144  1.0267
 3252SOL    HW210381   3.378   2.499   2.627  0.4563  0.2488  0.8376
 3253SOL     OW10382   3.172   3.783   1.789 -0.0805 -0.7105 -0.1343
 3253SOL    HW110383   3.108   3.852   1.755  1.0411 -0.3858 -1.7221
 3253SOL    HW210384   3.129   3.693   1.788 -0.3832 -0.5785 -1.7019
 3254SOL     OW10385   3.993   1.131   1.407 -0.1188 -0.4002 -0.4509
 3254SOL    HW110386   3.942   1.155   1.490 -1.6099  0.5344 -1.5995
 3254SOL    HW210387   4.034   1.213   1.368  0.7211 -0.8618 -0.5607
 3255SOL     OW10388   4.703   0.261   4.480  0.0853  0.3208 -0.2954
 3255SOL    HW110389   4.721   0.177   4.531  2.4543  0.3224 -0.9988
 3255SOL    HW210390   4.627   0.309   4.521  0.8786 -0.4718  2.2808
 3256SOL     OW10391   4.093   0.798   4.306 -0.4542 -0.3879  0.3916
 3256SOL    HW110392   4.149   0.716   4.299 -0.5643 -0.3693 -1.0559
 3256SOL    HW210393   3.999   0.777   4.279 -0.4587  0.2269 -0.0975
 3257SOL     OW10394   3.210   3.341   2.548  1.0525 -0.8890 -0.5847
 3257SOL    HW110395   3.245   3.430   2.576 -0.2569 -1.3127  2.9321
 3257SOL    HW210396   3.135   3.353   2.483  2.1583  0.3793 -1.6938
 3258SOL     OW10397   2.510   0.509   0.373 -1.1432 -0.0306 -0.0399
 3258SOL    HW110398   2.435   0.520   0.307 -1.1252 -0.0407 -0.0621
 3258SOL    HW210399   2.514   0.414   0.403 -0.6774 -0.1958 -0.5984
 3259SOL     OW10400   4.519   0.725   0.995 -0.0967  0.3643 -0.5717
 3259SOL    HW110401   4.573   0.663   1.052 -0.7217 -1.1029 -1.5224
 3259SOL    HW210402   4.493   0.806   1.049 -1.6571 -1.4787  1.6441
 3260SOL     OW10403   4.588   4.513   0.185 -0.6602  0.5939  0.1329
 3260SOL    HW110404   4.492   4.486   0.178 -0.7767  0.5946  1.5512
 3260SOL    HW210405   4.632   4.462   0.258 -0.2546  2.4160  1.2395
 3261SOL     OW10406   1.851   4.188   1.252  0.1719 -0.4707  0.4372
 3261SOL    HW110407   1.809   4.239   1.176 -1.5900  1.0989  2.3337
 3261SOL    HW210408   1.780   4.143   1.305  1.4240 -2.0113  0.8811
 3262SOL     OW10409   4.177   1.829   4.481  0.9130  0.3276  0.2117
 3262SOL    HW110410   4.176   1.846   4.580  3.7028 -0.3785  0.4503
 3262SOL    HW210411   4.108   1.886   4.436  0.5069  1.6811  2.4031
 3263SOL     OW10412   2.014   0.722   3.620  0.1980 -0.4589  0.0566
 3263SOL    HW110413   2.086   0.761   3.564  0.4961  0.5704  1.1228
 3263SOL    HW210414   2.049   0.642   3.669 -0.0878 -1.4126 -1.2470
 3264SOL     OW10415   1.946   3.761   1.571  1.3848 -0.1738 -0.0375
 3264SOL    HW110416   1.907   3.674   1.540  2.7076 -1.9479  2.8548
 3264SOL    HW210417   1.916   3.781   1.664  0.6232  2.8904 -0.8248
 3265SOL     OW10418   3.546   2.804   0.888 -0.4605 -0.3745 -0.2566
 3265SOL    HW110419   3.626   2.863   0.879  0.2573 -1.3838 -0.7828
 3265SOL    HW210420   3.500   2.797   0.799 -0.0324 -1.2671 -0.4238
 3266SOL     OW10421   1.847   2.719   4.795 -0.0431  0.0372  0.1541
 3266SOL    HW110422   1.865   2.815   4.819  0.0487  0.0754 -0.0691
 3266SOL    HW210423   1.866   2.705   4.698  1.3748 -0.5673  0.5029
 3267SOL     OW10424   4.868   1.803   2.482  0.5438  0.5731 -0.6259
 3267SOL    HW110425   4.773   1.776   2.494  0.4727  0.5237 -1.2515
 3267SOL    HW210426   4.883   1.891   2.526  0.4259  0.1794  0.2100
 3268SOL     OW10427   4.907   1.575   4.131  0.1511 -0.6014  0.2101
 3268SOL    HW110428   4.808   1.581   4.141  0.2457 -1.5314  2.3499
 3268SOL    HW210429   4.930   1.500   4.069 -0.4738  0.1963 -1.0151
 3269SOL     OW10430   1.328   3.128   2.769 -0.3549  0.7438 -0.2998
 3269SOL    HW110431   1.331   3.037   2.813  1.0087  0.9554  0.1011
 3269SOL    HW210432   1.408   3.180   2.797 -1.2961  2.2170 -0.2591
 3270SOL     OW10433   3.597   2.011   3.551 -0.0866 -0.0242 -0.1669
 3270SOL    HW110434   3.572   2.108   3.550  1.1414  0.3518 -2.4320
 3270SOL    HW210435   3.646   1.990   3.635 -0.8576  1.1805  0.6034
 3271SOL     OW10436   3.429   1.750   3.756  0.2321  0.3322  0.1234
 3271SOL    HW110437   3.396   1.661   3.788 -2.5211  0.7730 -1.1856
 3271SOL    HW210438   3.398   1.765   3.662  1.7955  2.1351 -0.1652
 3272SOL     OW10439   1.476   3.987   1.563 -0.3115  0.2683 -0.4333
 3272SOL    HW110440   1.470   3.901   1.613 -1.1733  0.2926 -0.4877
 3272SOL    HW210441   1.388   4.035   1.568  0.1665  1.1639 -0.3689
 3273SOL     OW10442   1.506   0.039   1.427 -0.7952 -0.2108 -0.0877
 3273SOL    HW110443   1.524   0.109   1.358  1.4744  0.0111  0.6777
 3273SOL    HW210444   1.458   0.081   1.505  1.6258  0.8754  0.9183
 3274SOL     OW10445   0.463   4.616   3.881  0.3691 -0.0084 -0.1748
 3274SOL    HW110446   0.546   4.590   3.832 -0.1961 -0.2431 -1.0320
 3274SOL    HW210447   0.486   4.640   3.975  1.0083 -3.2171  0.6120
 3275SOL     OW10448   4.011   3.731   4.933  0.0527 -0.7093  0.2355
 3275SOL    HW110449   3.978   3.666   4.864  2.9828 -2.1514  0.0322
 3275SOL    HW210450   4.053   3.680   5.008  2.6208  0.8871 -0.0058
 3276SOL     OW10451   2.636   2.916   3.915  0.1980 -0.7860  0.4412
 3276SOL    HW110452   2.651   2.887   3.820  0.0140  0.7086 -0.0719
 3276SOL    HW210453   2.551   2.969   3.921  1.2041  0.8440  1.0313
 3277SOL     OW10454   1.832   3.313   1.892  0.9411  0.2361 -0.6262
 3277SOL    HW110455   1.927   3.282   1.881  2.4306  2.9974  2.7200
 3277SOL    HW210456   1.818   3.344   1.986 -3.4366 -0.2362 -0.9471
 3278SOL     OW10457   1.767   3.549   1.449  0.8348  0.9058 -0.2470
 3278SOL    HW110458   1.758   3.492   1.530  0.2531  0.9457 -0.2831
 3278SOL    HW210459   1.805   3.494   1.374  3.7700  1.4465  0.6962
 3279SOL     OW10460   0.835   3.653   0.528  0.4638  0.2151 -0.3225
 3279SOL    HW110461   0.890   3.632   0.609 -0.1822  0.2156  0.1214
 3279SOL    HW210462   0.807   3.568   0.484  1.4034  0.2235 -0.9538
 3280SOL     OW10463   4.135   4.291   3.801 -0.3426 -0.2874 -0.0072
 3280SOL    HW110464   4.185   4.372   3.773 -0.8948  1.2969  3.1419
 3280SOL    HW210465   4.192   4.210   3.787  0.7233  0.7346 -1.9702
 3281SOL     OW10466   3.929   2.235   3.565 -0.4863 -0.3962 -0.0385
 3281SOL    HW110467   3.885   2.162   3.617  0.3929 -0.8511  0.0905
 3281SOL    HW210468   4.001   2.196   3.507  0.7212  0.4642  0.8281
 3282SOL     OW10469   2.328   4.580   2.500  0.0971 -0.4937 -0.1739
 3282SOL    HW110470   2.294   4.646   2.568  0.2547  1.8795 -2.2488
 3282SOL    HW210471   2.268   4.581   2.420  2.3495  0.2218 -1.9438
 3283SOL     OW10472   2.123   3.490   2.634 -0.2823 -0.3627 -0.4085
 3283SOL    HW110473   2.197   3.430   2.665  0.2349  0.1821 -0.5624
 3283SOL    HW210474   2.152   3.537   2.551 -0.2637  0.9132  0.3045
 3284SOL     OW10475   4.544   1.684   2.337 -0.6664 -0.0691  0.6570
 3284SOL    HW110476   4.456   1.638   2.335 -0.0968 -1.1989  0.7592
 3284SOL    HW210477   4.572   1.709   2.244 -0.0734 -1.7551  0.3450
 3285SOL     OW10478   0.963   2.139   4.933  0.0586  0.5720  0.1298
 3285SOL    HW110479   1.002   2.170   5.019 -0.6576 -0.8882  1.0211
 3285SOL    HW210480   0.991   2.201   4.859  0.4829  1.9936  1.4305
 3286SOL     OW10481   2.521   2.401   2.554  0.0942  0.4995  0.3646
 3286SOL    HW110482   2.484   2.445   2.472  2.0762  1.7499  0.0616
 3286SOL    HW210483   2.580   2.325   2.527 -1.0056 -0.5421  0.7777
 3287SOL     OW10484   0.051   2.905   2.896 -0.0732  0.1717  0.6870
 3287SOL    HW110485   0.049   2.809   2.867 -3.5312  0.4338 -0.3503
 3287SOL    HW210486   0.032   2.911   2.994 -1.2616 -0.1743  0.4901
 3288SOL     OW10487   0.982   4.645   2.747 -0.0623  0.4271  0.6995
 3288SOL    HW110488   1.040   4.593   2.684  0.6731  1.6229  0.3594
 3288SOL    HW210489   0.898   4.672   2.701  0.2557  0.8782  0.3761
 3289SOL     OW10490   4.029   4.662   1.663  0.2513 -0.6040 -0.4869
 3289SOL    HW110491   3.962   4.716   1.611  2.8326 -0.2187 -3.7433
 3289SOL    HW210492   4.104   4.722   1.692  1.2943 -1.7500 -0.7468
 3290SOL     OW10493   2.779   4.870   1.385  0.8561  0.4322  0.5582
 3290SOL    HW110494   2.747   4.786   1.429 -2.4655 -1.4513 -4.5745
 3290SOL    HW210495   2.875   4.860   1.359  1.2872 -0.5516  2.3234
 3291SOL     OW10496   0.592   2.342   0.766 -0.2888 -0.6085 -0.0561
 3291SOL    HW110497   0.665   2.408   0.787  1.2564 -2.8897  2.2546
 3291SOL    HW210498   0.630   2.266   0.715 -0.7664 -2.2309  1.8791
 3292SOL     OW10499   0.154   0.526   0.280 -0.2410 -0.6996 -0.6664
 3292SOL    HW110500   0.144   0.519   0.379  0.9739 -0.3743 -0.5118
 3292SOL    HW210501   0.215   0.454   0.248  0.4287  0.0063 -1.0003
 3293SOL     OW10502   2.146   1.100   4.819 -0.5667  0.0249 -0.3938
 3293SOL    HW110503   2.245   1.101   4.802 -0.8890  0.7282 -2.5171
 3293SOL    HW210504   2.100   1.052   4.745 -1.8409 -0.3828  0.6213
 3294SOL     OW10505   0.100   0.698   0.059 -0.5258 -0.1100  0.3196
 3294SOL    HW110506   0.133   0.635   0.129 -0.7048  0.1312  0.6247
 3294SOL    HW210507   0.089   0.789   0.099 -3.1285 -0.5021  0.7046
 3295SOL     OW10508   2.632   2.508   3.970 -0.0851 -0.4440  0.5165
 3295SOL    HW110509   2.558   2.443   3.954  0.3354 -1.9778  3.9629
 3295SOL    HW210510   2.598   2.585   4.024  0.5298 -0.4160  0.8718
 3296SOL     OW10511   4.683   0.723   2.815  0.1375 -0.3335 -0.3373
 3296SOL    HW110512   4.716   0.647   2.871 -4.0738 -1.5087  0.9139
 3296SOL    HW210513   4.667   0.803   2.873  3.8480  1.4821 -1.5319
 3297SOL     OW10514   2.012   1.754   3.437 -0.5550 -0.2672 -0.8055
 3297SOL    HW110515   2.058   1.772   3.524 -0.6134  0.4761 -0.9229
 3297SOL    HW210516   2.028   1.830   3.374  1.1520 -1.6389 -2.1588
 3298SOL     OW10517   0.905   0.528   4.677  0.5132  0.0054  1.2673
 3298SOL    HW110518   0.850   0.582   4.613  1.4011 -1.3906 -0.7542
 3298SOL    HW210519   0.854   0.517   4.763 -1.5130  0.4077  0.1885
 3299SOL     OW10520   4.093   3.188   4.334  0.2622  0.2947  0.5887
 3299SOL    HW110521   4.082   3.223   4.241 -0.0242  1.8662  1.1870
 3299SOL    HW210522   4.189   3.199   4.363 -0.0490  1.7336  1.1825
 3300SOL     OW10523   3.398   1.722   0.822  0.1033  0.1960 -1.2318
 3300SOL    HW110524   3.459   1.674   0.884  1.8663  4.2718  0.6188
 3300SOL    HW210525   3.317   1.754   0.872  1.2064  2.9272 -0.9958
 3301SOL     OW10526   1.453   4.086   3.319 -0.0934  0.8487  0.5287
 3301SOL    HW110527   1.489   4.175   3.347  1.9470  0.3095 -0.1807
 3301SOL    HW210528   1.508   4.051   3.243 -1.5036 -0.5714  0.1200
 3302SOL     OW10529   0.533   3.245   3.055 -0.0161  0.3206 -0.5858
 3302SOL    HW110530   0.618   3.277   3.097 -1.8560  0.6000  3.3403
 3302SOL    HW210531   0.543   3.148   3.032  0.9440 -0.0854  1.2860
 3303SOL     OW10532   1.568   3.786   3.795 -0.1448 -0.5621  0.9018
 3303SOL    HW110533   1.608   3.872   3.764  0.9216 -1.4899 -0.4281
 3303SOL    HW210534   1.503   3.753   3.727  0.3816 -1.4251  0.8123
 3304SOL     OW10535   3.527   1.797   1.950 -0.0877 -0.3160 -0.4286
 3304SOL    HW110536   3.505   1.827   1.857  2.6432 -1.7254 -1.6367
 3304SOL    HW210537   3.625   1.804   1.965 -0.3594 -0.9768  2.0554
 3305SOL     OW10538   2.021   0.147   4.751 -0.1247 -1.0728  0.1151
 3305SOL    HW110539   2.047   0.061   4.709  0.7120 -1.2722  0.9958
 3305SOL    HW210540   2.078   0.163   4.832 -1.1309 -0.3210  0.6982
 3306SOL     OW10541   0.227   2.703   4.838  0.3329  0.5607 -0.6855
 3306SOL    HW110542   0.146   2.761   4.845  0.6396  1.2052 -2.2320
 3306SOL    HW210543   0.204   2.620   4.787  0.1662 -0.2442  0.6221
 3307SOL     OW10544   1.720   3.276   0.655  0.5140  0.3872 -0.1280
 3307SOL    HW110545   1.794   3.222   0.615 -0.4394 -0.5518 -0.6797
 3307SOL    HW210546   1.632   3.246   0.616 -0.1033  1.9540 -0.0250
 3308SOL     OW10547   0.744   1.913   3.327  1.0352 -0.6036  0.5303
 3308SOL    HW110548   0.826   1.969   3.329  1.9225 -1.8099  3.2023
 3308SOL    HW210549   0.691   1.928   3.410 -1.5648  0.2082 -1.1739
 3309SOL     OW10550   2.556   3.631   4.150  0.4016 -0.1802  0.5926
 3309SOL    HW110551   2.506   3.605   4.232 -3.3292  1.2054 -1.0373
 3309SOL    HW210552   2.513   3.592   4.070  2.3724  0.6070 -0.9505
 3310SOL     OW10553   1.954   3.859   3.878  0.2891  0.0176  0.0739
 3310SOL    HW110554   1.968   3.810   3.792 -0.4775  1.1662 -0.7294
 3310SOL    HW210555   1.919   3.795   3.947 -1.5633 -0.4379 -1.2006
 3311SOL     OW10556   4.340   0.153   2.140  0.0743 -0.1577  0.7480
 3311SOL    HW110557   4.396   0.094   2.197  0.5953  1.9744  2.6020
 3311SOL    HW210558   4.315   0.105   2.056  3.3426 -1.7802  0.5394
 3312SOL     OW10559   4.680   1.690   2.856 -0.3861 -0.4979  0.4033
 3312SOL    HW110560   4.692   1.789   2.855  1.1253 -0.6056 -2.1122
 3312SOL    HW210561   4.766   1.646   2.884 -1.2571 -1.1143  2.2028
 3313SOL     OW10562   1.471   3.363   2.201  0.5855 -0.1798 -0.9422
 3313SOL    HW110563   1.457   3.430   2.128 -0.8212 -0.7671 -1.2505
 3313SOL    HW210564   1.402   3.291   2.193  1.5576 -1.2342 -0.1257
 3314SOL     OW10565   0.162   2.248   2.417 -0.2701 -0.4701 -0.2832
 3314SOL    HW110566   0.239   2.264   2.355 -1.2522 -0.6536 -1.5960
 3314SOL    HW210567   0.174   2.159   2.462  0.6390 -0.1704  0.0945
 3315SOL     OW10568   3.983   1.691   0.158  0.7337 -0.2020  0.0528
 3315SOL    HW110569   4.054   1.682   0.228  0.3929  0.0617  0.4370
 3315SOL    HW210570   3.940   1.603   0.142 -1.3669  0.2403  2.4967
 3316SOL     OW10571   4.740   0.043   1.441  0.0731 -0.4847  0.0711
 3316SOL    HW110572   4.696   0.125   1.477 -0.2576 -0.2256 -0.8853
 3316SOL    HW210573   4.734   0.043   1.341  0.2890 -1.5523  0.0436
 3317SOL     OW10574   4.904   1.259   2.207  0.2983  0.3836  0.0054
 3317SOL    HW110575   4.812   1.299   2.208 -0.0385 -0.1692 -2.3290
 3317SOL    HW210576   4.940   1.256   2.300 -2.9419 -1.4407  1.3572
 3318SOL     OW10577   4.998   0.662   3.037 -0.1928  0.7022  0.4173
 3318SOL    HW110578   4.920   0.600   3.027 -0.1021  0.8021 -1.2530
 3318SOL    HW210579   4.973   0.737   3.099 -1.4948  0.8094 -0.1975
 3319SOL     OW10580   2.627   4.962   1.932  0.0602  0.1667  0.5365
 3319SOL    HW110581   2.661   4.874   1.897 -1.7217 -0.0871 -0.6739
 3319SOL    HW210582   2.539   4.948   1.977 -0.5480  1.4361 -0.2200
 3320SOL     OW10583   0.050   1.361   3.991  0.4221  0.4561 -0.5098
 3320SOL    HW110584   0.018   1.271   3.962 -0.2494  1.3922 -2.9530
 3320SOL    HW210585   0.087   1.355   4.083 -5.3299 -1.1246  2.1781
 3321SOL     OW10586   3.381   1.282   4.754  0.4981  0.1284 -0.3542
 3321SOL    HW110587   3.464   1.289   4.810 -0.4852 -1.4076  1.3804
 3321SOL    HW210588   3.353   1.187   4.747 -1.9496  0.7074  0.4180
 3322SOL     OW10589   0.528   3.558   4.658 -0.3161  0.2718 -0.2484
 3322SOL    HW110590   0.607   3.514   4.614 -0.1262  1.8619 -1.5945
 3322SOL    HW210591   0.553   3.585   4.751  1.1913  1.7830 -1.0208
 3323SOL     OW10592   3.915   2.790   0.039  0.1873  0.5460 -0.1218
 3323SOL    HW110593   3.962   2.783  -0.049 -0.3890  1.9151 -0.5748
 3323SOL    HW210594   3.824   2.749   0.032  1.1554 -1.8571  0.6757
 3324SOL     OW10595   0.861   2.026   2.225  0.1301  0.2642  0.1016
 3324SOL    HW110596   0.803   2.094   2.179 -0.2473 -0.4920 -0.5575
 3324SOL    HW210597   0.952   2.025   2.183 -0.0553 -0.0649 -0.2995
 3325SOL     OW10598   0.733   3.222   1.506  0.4250  0.7759  0.4548
 3325SOL    HW110599   0.791   3.206   1.426 -0.1317  1.1141 -0.0222
 3325SOL    HW210600   0.783   3.194   1.589  0.8995  0.1566 -0.0243
 3326SOL     OW10601   4.619   0.038   3.128 -0.5246  0.1270  0.0268
 3326SOL    HW110602   4.603   0.061   3.032 -0.9053  2.3176  0.5707
 3326SOL    HW210603   4.707   0.076   3.157 -1.3457  1.2608  1.0827
 3327SOL     OW10604   2.361   1.696   1.691  0.0493 -0.3064  0.8108
 3327SOL    HW110605   2.422   1.637   1.639 -3.0697 -1.2010 -2.1651
 3327SOL    HW210606   2.271   1.696   1.650 -0.7003  5.2327  1.6376
 3328SOL     OW10607   2.857   3.717   3.628 -0.0467 -0.8142  0.2167
 3328SOL    HW110608   2.867   3.722   3.727 -0.4048 -1.3013  0.2822
 3328SOL    HW210609   2.894   3.630   3.595  0.1654 -0.6088 -0.0882
 3329SOL     OW10610   3.832   3.442   0.505  0.0147  0.4198  0.6770
 3329SOL    HW110611   3.791   3.453   0.595 -1.6514 -1.1935  0.1801
 3329SOL    HW210612   3.766   3.470   0.435  1.7151  2.8368 -0.0782
 3330SOL     OW10613   0.753   1.906   1.231 -0.0204  0.2777 -0.4918
 3330SOL    HW110614   0.689   1.831   1.248 -1.1250  1.2029 -0.4413
 3330SOL    HW210615   0.716   1.990   1.270 -0.5085  1.5730 -3.4360
 3331SOL     OW10616   0.423   2.145   3.394 -0.1497 -0.0413 -0.9614
 3331SOL    HW110617   0.480   2.118   3.316 -0.4095 -1.1744 -0.7852
 3331SOL    HW210618   0.451   2.092   3.474  1.2977  2.3464  0.2065
 3332SOL     OW10619   2.735   2.878   3.091 -0.6436 -0.0240  0.4137
 3332SOL    HW110620   2.823   2.832   3.104  0.2805  1.3694 -0.5857
 3332SOL    HW210621   2.717   2.886   2.993 -2.4333 -1.2509  0.6111
 3333SOL     OW10622   0.527   3.188   4.091 -0.3371 -0.0181 -0.2829
 3333SOL    HW110623   0.476   3.266   4.128  1.3735  0.7924  0.4383
 3333SOL    HW210624   0.543   3.121   4.163  0.7289  0.3371 -0.1810
 3334SOL     OW10625   3.203   3.058   0.266  0.0097  0.4780  0.5395
 3334SOL    HW110626   3.171   3.132   0.208 -2.7451 -1.0700 -0.0791
 3334SOL    HW210627   3.267   3.000   0.215 -0.3014  0.6381 -0.0369
 3335SOL     OW10628   3.053   2.988   0.483  0.1967  0.7102 -0.4633
 3335SOL    HW110629   3.139   3.004   0.434 -0.2332  0.5900 -1.2707
 3335SOL    HW210630   2.985   2.951   0.419 -0.0873 -0.3790  0.4363
 3336SOL     OW10631   3.474   2.671   4.705 -0.7025 -0.3561  0.2687
 3336SOL    HW110632   3.457   2.576   4.731  0.7585 -0.5238  0.6736
 3336SOL    HW210633   3.559   2.677   4.654 -2.5101  0.2437 -2.9402
 3337SOL     OW10634   2.375   4.633   4.330 -0.2427  0.6193 -0.1794
 3337SOL    HW110635   2.326   4.600   4.411  0.2744 -1.8323 -0.7893
 3337SOL    HW210636   2.436   4.707   4.356 -0.3600  0.1398  1.6097
 3338SOL     OW10637   4.100   0.896   2.486  0.0773 -0.4004 -0.7101
 3338SOL    HW110638   4.033   0.932   2.421  1.3055  1.9666 -0.8031
 3338SOL    HW210639   4.192   0.923   2.456  1.0761 -3.0829 -0.3026
 3339SOL     OW10640   1.744   2.957   2.301  0.0511 -0.0911 -0.1492
 3339SOL    HW110641   1.776   3.033   2.358 -0.6629 -0.6295  1.0003
 3339SOL    HW210642   1.712   2.993   2.213  1.6799  0.6938 -0.4641
 3340SOL     OW10643   0.308   1.101   4.344 -0.5936 -0.0789  0.4229
 3340SOL    HW110644   0.317   1.071   4.439 -0.8451  0.6761  0.6956
 3340SOL    HW210645   0.212   1.122   4.325 -1.1556 -3.3492 -0.9878
 3341SOL     OW10646   4.737   2.371   3.160 -0.3549  0.3859 -0.5468
 3341SOL    HW110647   4.780   2.296   3.110  3.1749 -0.5723  3.3235
 3341SOL    HW210648   4.693   2.335   3.243  0.0494  2.3827  0.5942
 3342SOL     OW10649   2.537   3.935   0.129  0.2356  0.1299  0.3059
 3342SOL    HW110650   2.448   3.909   0.167 -0.1868  1.8079  0.5453
 3342SOL    HW210651   2.544   4.035   0.126  0.4600  0.1368 -3.5562
 3343SOL     OW10652   3.257   3.631   0.378  0.6552  0.6473 -0.1372
 3343SOL    HW110653   3.275   3.547   0.429  0.5404  1.1457  0.7444
 3343SOL    HW210654   3.282   3.710   0.433 -3.0426  1.3762  0.7899
 3344SOL     OW10655   2.831   4.535   2.058 -0.2299 -0.5195 -0.0124
 3344SOL    HW110656   2.922   4.572   2.039  0.4957 -2.0531  0.3376
 3344SOL    HW210657   2.772   4.608   2.092  1.6994 -0.0142  2.5844
 3345SOL     OW10658   0.891   3.265   1.298 -0.4947 -0.0997  0.0683
 3345SOL    HW110659   0.835   3.331   1.246 -0.6061  1.0729  1.5989
 3345SOL    HW210660   0.980   3.305   1.317 -0.4893 -0.4698  0.8464
 3346SOL     OW10661   3.594   3.809   0.922 -0.1279 -0.5477  0.1107
 3346SOL    HW110662   3.685   3.794   0.961 -0.0082  0.9523  0.4892
 3346SOL    HW210663   3.600   3.809   0.822  0.3539 -0.1736  0.1313
 3347SOL     OW10664   3.020   3.748   4.264 -1.0799 -0.4161  0.1124
 3347SOL    HW110665   3.084   3.698   4.323  0.1764  1.6114  0.5349
 3347SOL    HW210666   3.048   3.736   4.169  1.8581  2.7588  0.3946
 3348SOL     OW10667   2.392   0.856   2.662  0.7869  0.2861  0.2876
 3348SOL    HW110668   2.464   0.835   2.729  1.9168  0.7218 -0.7455
 3348SOL    HW210669   2.340   0.773   2.642 -0.3325  0.3743  2.5196
 3349SOL     OW10670   3.200   4.362   0.803 -0.6304  0.3251 -0.2881
 3349SOL    HW110671   3.237   4.270   0.810  0.9984  0.7176 -2.6857
 3349SOL    HW210672   3.255   4.425   0.857 -0.5863  0.2028 -0.1905
 3350SOL     OW10673   0.855   2.378   2.429 -0.1761 -0.2826 -0.2685
 3350SOL    HW110674   0.897   2.382   2.338  1.0849  0.2136  0.3178
 3350SOL    HW210675   0.898   2.446   2.489 -2.3378  0.7929  0.1747
 3351SOL     OW10676   1.671   1.707   4.071  0.3615 -0.0437 -0.2495
 3351SOL    HW110677   1.597   1.773   4.083 -1.1838 -1.3526 -1.9923
 3351SOL    HW210678   1.670   1.643   4.148 -0.4800 -0.1675 -0.3505
 3352SOL     OW10679   0.256   0.615   3.277  0.3737 -0.4634 -0.2341
 3352SOL    HW110680   0.266   0.689   3.210  1.0225  1.8406  2.2171
 3352SOL    HW210681   0.159   0.599   3.294  0.1858 -1.2873 -1.8532
 3353SOL     OW10682   4.217   2.086   4.596 -0.2918 -0.3757 -0.8203
 3353SOL    HW110683   4.210   2.175   4.640 -0.9356  0.2037 -2.0527
 3353SOL    HW210684   4.240   2.017   4.665 -2.5596  0.2551  0.6861
 3354SOL     OW10685   3.137   4.144   2.714  0.7599  0.4238 -0.1846
 3354SOL    HW110686   3.166   4.203   2.638 -0.6231  1.6230  0.1692
 3354SOL    HW210687   3.195   4.063   2.717  1.4728  0.8177 -1.9116
 3355SOL     OW10688   3.714   2.517   1.469 -0.2559 -0.3107 -0.6743
 3355SOL    HW110689   3.803   2.549   1.437  0.3688 -0.6370  0.6917
 3355SOL    HW210690   3.714   2.510   1.568 -1.5376 -1.1101 -0.7018
 3356SOL     OW10691   0.661   4.434   2.222 -0.1914  0.7294  0.0007
 3356SOL    HW110692   0.573   4.414   2.265 -0.3209  0.7791 -0.2386
 3356SOL    HW210693   0.720   4.484   2.286  0.3398 -0.8709  0.8236
 3357SOL     OW10694   1.208   3.273   4.426 -0.0230 -0.1270 -0.0368
 3357SOL    HW110695   1.232   3.370   4.419 -2.5632  0.5596 -0.1150
 3357SOL    HW210696   1.152   3.247   4.347  1.5498 -2.0065 -0.6116
 3358SOL     OW10697   3.485   0.910   1.503 -0.0153  0.2033 -0.9471
 3358SOL    HW110698   3.531   0.867   1.580 -1.3879  1.7010  0.7977
 3358SOL    HW210699   3.552   0.956   1.445  0.7929  2.8921  1.8575
 3359SOL     OW10700   0.552   2.144   4.153 -0.0731  0.0318  0.3136
 3359SOL    HW110701   0.597   2.202   4.221  0.0384 -0.2545  0.4825
 3359SOL    HW210702   0.589   2.165   4.062 -1.9048  2.1622 -0.0406
 3360SOL     OW10703   0.245   4.503   2.819  0.8254 -0.4892  0.4363
 3360SOL    HW110704   0.305   4.552   2.756  0.8552 -1.0488  0.0321
 3360SOL    HW210705   0.298   4.439   2.874  0.3710 -2.3434 -1.2061
 3361SOL     OW10706   0.648   1.273   4.969  0.1263 -0.1338 -0.1201
 3361SOL    HW110707   0.714   1.343   4.942  1.8202 -1.4955  0.2919
 3361SOL    HW210708   0.687   1.182   4.953 -2.7444 -1.1230 -2.5699
 3362SOL     OW10709   0.725   1.934   4.665  0.7203 -0.7375 -1.0346
 3362SOL    HW110710   0.707   1.861   4.731 -0.2802 -0.7856 -1.3419
 3362SOL    HW210711   0.644   1.948   4.608  1.6707 -0.9137 -2.4775
 3363SOL     OW10712   0.166   1.972   0.471 -0.4989  0.4822  0.2591
 3363SOL    HW110713   0.120   1.945   0.387  0.2469  1.3233 -0.4325
 3363SOL    HW210714   0.126   1.922   0.548 -3.0099  1.6378 -0.2026
 3364SOL     OW10715   2.597   2.666   2.604  0.2485  0.1560 -0.2213
 3364SOL    HW110716   2.583   2.570   2.581 -1.9272  0.3887 -0.1233
 3364SOL    HW210717   2.531   2.723   2.554 -0.5061  1.2704  1.8630
 3365SOL     OW10718   1.788   0.514   2.241  0.8855 -0.3293  0.0684
 3365SOL    HW110719   1.804   0.427   2.194 -0.2087  0.4246 -1.7940
 3365SOL    HW210720   1.749   0.497   2.332  0.8382 -1.7601 -0.2039
 3366SOL     OW10721   0.193   4.772   4.529 -0.0330  0.1784 -0.1687
 3366SOL    HW110722   0.103   4.810   4.550 -1.0062 -2.6124  1.1906
 3366SOL    HW210723   0.247   4.766   4.613  1.3191  1.4206 -0.9021
 3367SOL     OW10724   1.829   1.389   1.294 -0.5991  0.1838 -1.0409
 3367SOL    HW110725   1.778   1.456   1.349  0.7072  1.2141 -1.0563
 3367SOL    HW210726   1.919   1.425   1.272  1.1173 -2.5324  0.9829
 3368SOL     OW10727   4.621   3.642   1.685  1.0135  0.7024  0.4472
 3368SOL    HW110728   4.687   3.654   1.612  2.8467 -0.8042  1.7457
 3368SOL    HW210729   4.614   3.545   1.708 -1.2550  0.8754  0.7696
 3369SOL     OW10730   2.001   0.995   1.054 -0.3172  0.3371  0.0061
 3369SOL    HW110731   1.949   1.080   1.057 -0.0556  0.6482 -2.3101
 3369SOL    HW210732   1.985   0.943   1.138 -1.3657  2.1341  0.9777
 3370SOL     OW10733   1.118   2.988   3.005 -0.3129 -0.3073  0.2147
 3370SOL    HW110734   1.191   2.939   2.957 -1.3574 -0.6898 -1.0571
 3370SOL    HW210735   1.034   2.983   2.951 -0.6778  2.2166  0.4318
 3371SOL     OW10736   2.547   3.449   2.477 -0.2965  0.5716 -0.6435
 3371SOL    HW110737   2.601   3.529   2.503  0.0721 -0.2939  1.4443
 3371SOL    HW210738   2.608   3.370   2.468 -1.1829 -0.6448  2.6808
 3372SOL     OW10739   3.820   0.432   2.940  0.3310 -0.7415 -0.5978
 3372SOL    HW110740   3.898   0.389   2.895 -1.2292 -1.8300 -2.4355
 3372SOL    HW210741   3.800   0.520   2.896  0.8875 -0.1515  0.3003
 3373SOL     OW10742   4.327   0.622   4.993  0.0037  0.2221  0.2814
 3373SOL    HW110743   4.358   0.656   5.082  1.0681 -0.8655  0.3590
 3373SOL    HW210744   4.340   0.693   4.924 -1.4916  1.3395  1.0744
 3374SOL     OW10745   3.026   2.981   1.941  0.7403 -0.6568 -0.0958
 3374SOL    HW110746   3.003   3.035   1.860  0.8605 -0.9197 -0.3050
 3374SOL    HW210747   3.111   3.016   1.980 -0.0908  0.4613  0.8056
 3375SOL     OW10748   4.522   2.162   2.355  0.3185 -0.4617 -0.4095
 3375SOL    HW110749   4.542   2.251   2.315 -0.7947 -0.2637 -0.5571
 3375SOL    HW210750   4.596   2.136   2.417  0.9303  0.2978 -0.8011
 3376SOL     OW10751   2.786   3.961   3.122 -0.6752  0.3421  0.2828
 3376SOL    HW110752   2.832   4.038   3.167  0.4328 -0.5926  0.8155
 3376SOL    HW210753   2.706   3.994   3.073 -0.1426  1.8544  0.3722
 3377SOL     OW10754   4.344   1.306   0.717  0.2059 -0.3703 -0.2758
 3377SOL    HW110755   4.294   1.321   0.632 -0.8341  3.2406  0.7974
 3377SOL    HW210756   4.441   1.326   0.702  0.1402 -0.3802 -0.7296
 3378SOL     OW10757   1.759   0.108   3.470 -0.3068  0.4833 -0.8603
 3378SOL    HW110758   1.823   0.065   3.534 -0.0038  0.8030 -0.9479
 3378SOL    HW210759   1.665   0.084   3.496 -0.2295  1.2096  0.1585
 3379SOL     OW10760   2.999   4.089   3.830  0.0318  0.1714  0.3563
 3379SOL    HW110761   3.059   4.010   3.841  3.2708  2.4125  0.0590
 3379SOL    HW210762   2.988   4.135   3.918 -0.8666  0.1049  0.2935
 3380SOL     OW10763   3.975   3.823   3.352 -0.3319 -0.3279  0.1097
 3380SOL    HW110764   4.022   3.740   3.323  1.9277  1.0927 -0.5947
 3380SOL    HW210765   4.004   3.899   3.294  1.3639  1.8901  3.5208
 3381SOL     OW10766   1.874   2.344   3.793 -0.7750  0.5024 -0.5495
 3381SOL    HW110767   1.857   2.280   3.868  1.9337 -0.2811 -0.5099
 3381SOL    HW210768   1.902   2.293   3.711  0.4015  1.5576 -0.8349
 3382SOL     OW10769   0.608   2.834   1.119  1.0829 -0.2234 -0.6123
 3382SOL    HW110770   0.644   2.864   1.207  3.5065 -0.9035 -1.2913
 3382SOL    HW210771   0.542   2.761   1.133  2.9707 -1.7837  0.6262
 3383SOL     OW10772   3.653   4.131   2.455 -0.0678  0.1569 -0.3389
 3383SOL    HW110773   3.642   4.037   2.490  0.7617  0.1950  0.0398
 3383SOL    HW210774   3.746   4.143   2.422  0.2665  1.2892  0.9525
 3384SOL     OW10775   1.095   0.844   2.372  0.4184 -0.0019 -0.7292
 3384SOL    HW110776   1.169   0.867   2.308 -1.0378  0.0243 -2.4685
 3384SOL    HW210777   1.035   0.923   2.384  0.7152  0.0263  0.7999
 3385SOL     OW10778   4.149   1.664   1.786 -0.5175 -0.3853 -0.3295
 3385SOL    HW110779   4.121   1.696   1.695 -0.1631  1.5665  0.2080
 3385SOL    HW210780   4.069   1.631   1.836 -1.2621  1.3608 -0.2862
 3386SOL     OW10781   0.144   2.014   2.860 -0.1451  0.9079  0.5263
 3386SOL    HW110782   0.240   1.992   2.845 -0.2653 -0.9983  2.1236
 3386SOL    HW210783   0.129   2.110   2.840  1.8756  1.0378 -0.6750
 3387SOL     OW10784   1.218   1.904   2.727  0.2389 -0.4592  0.2091
 3387SOL    HW110785   1.275   1.986   2.719 -0.1769 -0.1422  0.4626
 3387SOL    HW210786   1.264   1.827   2.683  1.2371 -0.3996  1.1143
 3388SOL     OW10787   1.003   3.042   1.548  0.0588  0.6929  0.7449
 3388SOL    HW110788   0.907   3.017   1.560 -1.6306  3.2519 -4.1447
 3388SOL    HW210789   1.058   2.960   1.536 -1.7390 -0.8287  2.3282
 3389SOL     OW10790   4.018   4.337   0.185 -0.8067  0.7202  0.6401
 3389SOL    HW110791   3.939   4.398   0.173 -0.8985  0.5171  0.1752
 3389SOL    HW210792   3.992   4.259   0.241 -1.1465  0.2815 -0.1136
 3390SOL     OW10793   1.241   2.554   0.083  0.1142  0.8143 -0.2760
 3390SOL    HW110794   1.173   2.589   0.147 -0.5032  0.6492 -0.8347
 3390SOL    HW210795   1.203   2.477   0.032  0.5835  0.9621 -0.8635
 3391SOL     OW10796   4.304   3.704   1.906  0.2848 -0.8008 -0.2696
 3391SOL    HW110797   4.278   3.608   1.923 -2.8066 -0.3535 -1.7096
 3391SOL    HW210798   4.318   3.717   1.808  0.0139  0.3515 -0.1610
 3392SOL     OW10799   4.550   0.249   1.492 -0.2710 -0.0210  0.5171
 3392SOL    HW110800   4.520   0.344   1.495  3.2209  1.2106  1.9249
 3392SOL    HW210801   4.557   0.213   1.585 -0.0180 -1.1207  0.0916
 3393SOL     OW10802   3.069   3.101   3.273  0.4150 -0.1326 -0.3656
 3393SOL    HW110803   3.111   3.017   3.238  1.4298  0.2932 -0.2174
 3393SOL    HW210804   3.026   3.082   3.361  0.1718 -0.6162 -0.5855
 3394SOL     OW10805   0.524   2.822   3.916 -0.3181  0.3396 -0.7950
 3394SOL    HW110806   0.606   2.862   3.956 -0.0051 -3.8566  3.6742
 3394SOL    HW210807   0.443   2.866   3.955 -0.1816  1.5428 -1.8190
 3395SOL     OW10808   0.314   0.326   2.531  0.0576  0.5000 -0.1023
 3395SOL    HW110809   0.366   0.242   2.546 -1.0228 -0.3086 -0.7688
 3395SOL    HW210810   0.243   0.335   2.600 -0.6789  0.1748 -0.8075
 3396SOL     OW10811   1.488   2.014   4.495  0.7284 -0.6617 -0.7886
 3396SOL    HW110812   1.507   2.080   4.567  0.7614 -2.4197  0.8991
 3396SOL    HW210813   1.567   1.953   4.484 -0.6015 -2.7499  0.3883
 3397SOL     OW10814   3.156   1.286   3.508 -0.0047 -0.6711  0.2502
 3397SOL    HW110815   3.175   1.257   3.602 -1.5903  1.6571  1.3869
 3397SOL    HW210816   3.152   1.206   3.449  1.0830 -2.2118  2.1270
 3398SOL     OW10817   2.372   0.183   3.883 -0.4365  0.0261 -0.6607
 3398SOL    HW110818   2.329   0.138   3.961  0.0893  1.0023  0.2273
 3398SOL    HW210819   2.314   0.174   3.803 -1.4596 -0.1669  0.0852
 3399SOL     OW10820   3.949   3.226   4.039 -0.5500  0.2585  1.2635
 3399SOL    HW110821   3.954   3.295   3.966 -2.5229 -1.9475 -1.1672
 3399SOL    HW210822   3.861   3.181   4.036 -0.3716 -0.5681  4.5872
 3400SOL     OW10823   1.496   1.176   2.195 -0.0072  0.1778  0.6023
 3400SOL    HW110824   1.518   1.144   2.103  2.3905 -1.6297  1.6813
 3400SOL    HW210825   1.580   1.201   2.242 -0.1600 -4.6826  4.2401
 3401SOL     OW10826   4.790   2.619   3.061  0.1670 -0.1092 -0.2735
 3401SOL    HW110827   4.730   2.646   2.985 -0.6838 -2.3317 -0.4598
 3401SOL    HW210828   4.777   2.522   3.081 -0.3741  0.5466  3.3459
 3402SOL     OW10829   1.972   1.111   3.354  0.5579 -0.1902 -0.1259
 3402SOL    HW110830   1.983   1.115   3.454 -2.9365  2.3211  0.3569
 3402SOL    HW210831   1.954   1.017   3.326  1.9131 -0.9906  1.5356
 3403SOL     OW10832   3.501   2.274   3.542  0.0962 -0.3876  0.4837
 3403SOL    HW110833   3.439   2.271   3.621  0.1719  4.9452  1.1215
 3403SOL    HW210834   3.465   2.337   3.474  3.5287  0.9648 -0.2880
 3404SOL     OW10835   1.597   0.735   3.148  0.0137  0.5836  0.1201
 3404SOL    HW110836   1.623   0.675   3.224  0.4344 -1.1625 -1.3173
 3404SOL    HW210837   1.520   0.694   3.099 -0.1515  1.6012 -0.4976
 3405SOL     OW10838   0.624   1.466   2.207  0.2233 -0.7165  0.8991
 3405SOL    HW110839   0.700   1.495   2.149  0.8356 -0.9713  1.5475
 3405SOL    HW210840   0.577   1.546   2.244  0.7275 -0.5433  1.1829
 3406SOL     OW10841   4.312   0.056   2.748 -0.4574  0.2314  0.5130
 3406SOL    HW110842   4.321   0.126   2.677  0.2981 -0.5032 -0.1220
 3406SOL    HW210843   4.215   0.047   2.773 -0.5087  2.0003  1.1323
 3407SOL     OW10844   1.817   1.446   3.498 -0.6691  0.6562  0.1845
 3407SOL    HW110845   1.746   1.377   3.482 -1.3949  1.1264  1.2356
 3407SOL    HW210846   1.882   1.412   3.566  0.7768 -0.2060 -1.5484
 3408SOL     OW10847   4.654   2.915   0.002  0.6072 -0.2035 -0.9365
 3408SOL    HW110848   4.744   2.873   0.017  1.8284  2.6610  0.5638
 3408SOL    HW210849   4.660   3.014   0.016 -2.7782  0.1408 -0.9483
 3409SOL     OW10850   0.515   3.521   0.519  0.0475  0.7578 -0.1710
 3409SOL    HW110851   0.519   3.551   0.615 -0.0385  1.8018 -0.4825
 3409SOL    HW210852   0.596   3.467   0.498  0.3524  1.0105  0.3320
 3410SOL     OW10853   4.431   0.633   0.360  0.2556 -0.0266  0.0374
 3410SOL    HW110854   4.494   0.700   0.398 -0.1590  0.1654  0.3979
 3410SOL    HW210855   4.355   0.620   0.423  1.5006 -2.6137  1.1488
 3411SOL     OW10856   3.493   0.305   1.886  0.5949  0.1157  0.1133
 3411SOL    HW110857   3.528   0.281   1.796 -0.8875  2.3316 -1.1599
 3411SOL    HW210858   3.461   0.400   1.885  1.5223  0.5760  3.3069
 3412SOL     OW10859   0.916   3.574   2.211 -0.7147 -0.5343  0.6171
 3412SOL    HW110860   0.882   3.589   2.304 -4.6497  0.7806 -0.8142
 3412SOL    HW210861   0.841   3.540   2.154  1.5304 -1.2087 -2.1326
 3413SOL     OW10862   1.985   4.447   3.274  0.8182 -0.1445  0.3825
 3413SOL    HW110863   1.946   4.373   3.220  0.8369  0.9756 -1.2287
 3413SOL    HW210864   2.071   4.417   3.314 -0.1837 -1.6655  1.5441
 3414SOL     OW10865   3.040   0.245   1.686  0.3344 -0.4270 -0.0190
 3414SOL    HW110866   2.973   0.190   1.737  1.5212 -1.2727  0.6779
 3414SOL    HW210867   3.064   0.197   1.601  1.8829 -1.3978  0.9109
 3415SOL     OW10868   4.163   2.747   2.980 -0.3765  0.0500 -0.1760
 3415SOL    HW110869   4.180   2.786   3.070  0.2381  2.3179 -1.1864
 3415SOL    HW210870   4.101   2.807   2.929  1.0036  0.0457 -2.0025
 3416SOL     OW10871   0.701   1.572   2.506 -0.1918 -0.2967 -1.1682
 3416SOL    HW110872   0.719   1.665   2.475 -2.6037  0.8780  0.6073
 3416SOL    HW210873   0.607   1.547   2.481  0.2847 -2.1215 -1.2534
 3417SOL     OW10874   2.791   0.592   3.340  0.3387  0.3255  0.3065
 3417SOL    HW110875   2.807   0.666   3.404 -0.9170  1.3418 -0.5032
 3417SOL    HW210876   2.716   0.535   3.372  1.5580 -0.8833  1.1291
 3418SOL     OW10877   3.496   4.159   2.804  0.2865 -0.9324 -0.5592
 3418SOL    HW110878   3.400   4.168   2.778  0.9785  2.1636 -2.5608
 3418SOL    HW210879   3.524   4.238   2.859  1.6531 -1.9675  0.3246
 3419SOL     OW10880   0.940   3.132   0.267  0.8553  0.2978 -0.4938
 3419SOL    HW110881   0.950   3.036   0.293  0.7854  0.2132 -0.7735
 3419SOL    HW210882   0.923   3.187   0.349 -1.3026 -0.2270 -0.5179
 3420SOL     OW10883   3.296   4.266   3.446 -0.5723 -0.4836  1.0616
 3420SOL    HW110884   3.356   4.201   3.400 -1.3985 -0.2087 -0.4565
 3420SOL    HW210885   3.348   4.318   3.513  1.8777  2.3074 -2.6200
 3421SOL     OW10886   4.087   0.964   1.223  0.2383 -0.6912  0.5239
 3421SOL    HW110887   4.042   0.991   1.308 -1.5086 -0.8249 -0.3142
 3421SOL    HW210888   4.023   0.913   1.166  2.0353 -2.5292  0.0268
 3422SOL     OW10889   0.509   3.142   2.176 -0.1414  0.5468 -0.0459
 3422SOL    HW110890   0.427   3.085   2.177  0.6084 -0.7493 -2.3796
 3422SOL    HW210891   0.586   3.091   2.215  0.1526  0.6332 -0.4983
 3423SOL     OW10892   3.799   0.874   1.073  0.2179 -0.3802 -0.5607
 3423SOL    HW110893   3.727   0.940   1.053  1.2659  1.4552  1.2872
 3423SOL    HW210894   3.766   0.781   1.057 -1.9989  0.4759 -1.2345
 3424SOL     OW10895   4.484   2.110   4.152  0.0281  0.0949 -0.0514
 3424SOL    HW110896   4.575   2.070   4.163  0.7000  0.9433 -1.9410
 3424SOL    HW210897   4.419   2.061   4.210  1.5782 -0.8581  0.9815
 3425SOL     OW10898   4.455   0.304   3.358 -0.2446  0.6555 -0.3690
 3425SOL    HW110899   4.377   0.271   3.305  0.5768 -1.2158 -0.4965
 3425SOL    HW210900   4.450   0.267   3.451 -0.4203  1.9699  0.1611
 3426SOL     OW10901   4.193   0.069   1.897  0.1844 -0.5918  0.3471
 3426SOL    HW110902   4.129   0.142   1.873 -0.8004 -1.1999  1.0609
 3426SOL    HW210903   4.177   0.040   1.991  1.0036 -1.2814  0.2824
 3427SOL     OW10904   4.851   2.420   4.895  0.3721 -0.9988 -0.0915
 3427SOL    HW110905   4.934   2.402   4.947  0.4066  5.2255  2.9319
 3427SOL    HW210906   4.773   2.379   4.942  1.0605 -0.3459  1.7203
 3428SOL     OW10907   2.503   2.271   3.706 -0.5252  0.3339  0.1539
 3428SOL    HW110908   2.486   2.367   3.684 -0.2468  0.3889  0.1738
 3428SOL    HW210909   2.428   2.215   3.672  0.7110  0.1788 -2.6694
 3429SOL     OW10910   3.967   2.120   1.108 -1.4505 -0.3549 -0.8521
 3429SOL    HW110911   3.915   2.124   1.023  0.0702  0.2596 -1.8000
 3429SOL    HW210912   4.057   2.162   1.094 -1.5604  0.7987  1.3657
 3430SOL     OW10913   0.309   4.259   4.036 -0.3035 -0.1099  0.0738
 3430SOL    HW110914   0.266   4.186   3.984 -0.3213 -0.5597  0.7084
 3430SOL    HW210915   0.284   4.251   4.132  2.3467 -1.3033  0.7645
 3431SOL     OW10916   2.973   4.049   4.775 -0.6877  0.3766 -0.6127
 3431SOL    HW110917   3.071   4.064   4.757 -0.6825  0.3913 -0.5716
 3431SOL    HW210918   2.958   3.952   4.794 -0.9512  0.0198 -2.4143
 3432SOL     OW10919   4.682   3.914   2.324  0.1024  0.5909  0.1557
 3432SOL    HW110920   4.620   3.915   2.245 -1.3481  0.1291  1.2581
 3432SOL    HW210921   4.688   3.821   2.360  0.2555  0.9113  0.9738
 3433SOL     OW10922   4.838   4.154   4.303 -0.3025 -0.0779 -1.0494
 3433SOL    HW110923   4.852   4.081   4.236  0.1191  1.0823 -2.2612
 3433SOL    HW210924   4.741   4.173   4.313 -0.7098 -2.6919  1.4200
 3434SOL     OW10925   3.751   2.587   4.544  0.3428  0.3406  1.3411
 3434SOL    HW110926   3.783   2.505   4.591 -0.4134  0.8809  2.8608
 3434SOL    HW210927   3.666   2.566   4.495  1.8977 -0.6072 -1.1371
 3435SOL     OW10928   3.169   3.732   2.680  0.3238 -0.0629 -0.1992
 3435SOL    HW110929   3.118   3.667   2.623  0.6324 -1.1511  0.7206
 3435SOL    HW210930   3.126   3.738   2.770 -1.1198  2.8686 -0.9948
 3436SOL     OW10931   1.470   3.637   0.926 -0.4312 -0.8302 -0.8667
 3436SOL    HW110932   1.481   3.731   0.894 -0.2803 -1.0069 -1.3390
 3436SOL    HW210933   1.560   3.593   0.934 -0.5815 -1.3474 -1.9093
 3437SOL     OW10934   2.666   1.739   0.451  0.8766 -0.0919  0.4330
 3437SOL    HW110935   2.717   1.816   0.413  0.9948 -0.7759 -0.8652
 3437SOL    HW210936   2.580   1.772   0.489  2.2881  1.1071  2.8113
 3438SOL     OW10937   1.715   4.798   2.052  0.5696  1.0293 -0.1044
 3438SOL    HW110938   1.629   4.764   2.014  0.3636  2.7151 -1.2600
 3438SOL    HW210939   1.703   4.814   2.151 -0.9373  2.5300 -0.4705
 3439SOL     OW10940   3.663   2.199   0.123  0.6992  0.2879  0.5983
 3439SOL    HW110941   3.599   2.229   0.194  1.0269  1.1592  0.5377
 3439SOL    HW210942   3.752   2.180   0.164  0.0045 -2.7199  1.0083
 3440SOL     OW10943   0.380   0.466   2.936  0.1046 -0.5846  0.1273
 3440SOL    HW110944   0.297   0.438   2.983 -0.5943 -0.3664 -0.9334
 3440SOL    HW210945   0.453   0.399   2.953  0.5055  0.4652  3.0779
 3441SOL     OW10946   4.604   2.668   1.065  0.7569  0.3987  0.9343
 3441SOL    HW110947   4.560   2.636   1.149 -0.1835  0.0041  0.2989
 3441SOL    HW210948   4.673   2.602   1.036  0.7424  0.3011  1.1225
 3442SOL     OW10949   4.489   1.067   2.592 -0.4482 -0.0616 -0.1459
 3442SOL    HW110950   4.479   0.995   2.524 -0.5719 -1.6289  1.4379
 3442SOL    HW210951   4.586   1.091   2.602  0.0696 -2.5270  1.6724
 3443SOL     OW10952   3.911   3.143   0.071 -0.1822  0.3042 -0.5892
 3443SOL    HW110953   3.864   3.095  -0.002  2.4893 -0.3748 -2.0180
 3443SOL    HW210954   3.921   3.082   0.150 -5.2028  1.7903  1.5502
 3444SOL     OW10955   0.849   2.332   3.037 -0.1435 -0.2733 -0.5413
 3444SOL    HW110956   0.849   2.319   2.938 -0.6015 -0.0380 -0.5760
 3444SOL    HW210957   0.861   2.243   3.082  2.0274 -0.1661 -0.8132
 3445SOL     OW10958   4.238   0.578   0.604  0.2944  0.0388  0.4401
 3445SOL    HW110959   4.186   0.493   0.595 -1.3915  0.7105  2.8704
 3445SOL    HW210960   4.228   0.614   0.697  1.8307  2.3714 -0.2059
 3446SOL     OW10961   0.822   1.449   3.613  0.1169 -0.3908 -0.3365
 3446SOL    HW110962   0.815   1.503   3.529 -0.0719 -0.6426 -0.4792
 3446SOL    HW210963   0.905   1.394   3.610 -0.7308 -1.6649 -1.0895
 3447SOL     OW10964   2.424   4.365   1.722 -0.7178 -0.2071 -0.5015
 3447SOL    HW110965   2.511   4.396   1.759 -0.4090  1.0861 -2.1786
 3447SOL    HW210966   2.365   4.334   1.797  0.1305  1.5528  0.9662
 3448SOL     OW10967   0.187   2.641   3.340  0.7714 -0.6515 -0.3514
 3448SOL    HW110968   0.185   2.711   3.411  0.2341 -0.4139 -0.5895
 3448SOL    HW210969   0.232   2.558   3.375  1.3544 -0.2108 -0.0502
 3449SOL     OW10970   4.605   1.327   4.063 -0.3669  0.3300 -0.0882
 3449SOL    HW110971   4.580   1.242   4.111  0.2001  1.0532  1.5600
 3449SOL    HW210972   4.538   1.398   4.084 -0.3553  0.5529 -0.7648
 3450SOL     OW10973   2.425   4.991   4.614 -0.3933 -0.4946  1.0798
 3450SOL    HW110974   2.406   5.087   4.592 -1.8167 -0.2800  2.9823
 3450SOL    HW210975   2.417   4.977   4.713 -1.3743 -2.8054  0.7442
 3451SOL     OW10976   0.406   4.401   2.289  0.7486  0.2301 -0.2728
 3451SOL    HW110977   0.356   4.455   2.357 -0.2393  2.0321 -2.2951
 3451SOL    HW210978   0.351   4.322   2.262  1.2616 -0.6492  1.1412
 3452SOL     OW10979   4.650   1.564   4.681  0.6211 -0.6702 -0.0004
 3452SOL    HW110980   4.692   1.474   4.667  0.0564 -0.6585 -2.2733
 3452SOL    HW210981   4.598   1.589   4.599 -0.4841  1.0855  1.1698
 3453SOL     OW10982   4.690   4.282   2.830  0.0662  0.5310  0.3908
 3453SOL    HW110983   4.606   4.332   2.852 -1.9007 -2.3982  0.1714
 3453SOL    HW210984   4.670   4.184   2.830  2.9633 -0.1732 -2.0626
 3454SOL     OW10985   1.921   2.070   0.933  0.0634 -0.0554  0.1405
 3454SOL    HW110986   1.885   2.127   1.007 -1.0451  0.5011 -0.8003
 3454SOL    HW210987   1.845   2.033   0.879  0.8667  0.4567 -1.4043
 3455SOL     OW10988   4.636   1.868   0.416 -0.2268 -0.3305 -0.5321
 3455SOL    HW110989   4.680   1.954   0.442 -2.2137  0.4073  0.5902
 3455SOL    HW210990   4.646   1.802   0.490  2.7036 -1.7364 -2.0145
 3456SOL     OW10991   2.338   4.353   4.140 -0.0169 -0.6086 -0.2387
 3456SOL    HW110992   2.361   4.450   4.131  2.2532 -1.1488 -1.0075
 3456SOL    HW210993   2.334   4.329   4.237 -3.1903  0.7278  0.0732
 3457SOL     OW10994   0.542   0.017   4.081 -0.9472  0.1733  0.0644
 3457SOL    HW110995   0.516  -0.003   4.175 -3.9496  1.1085 -0.4517
 3457SOL    HW210996   0.537  -0.068   4.027 -4.6818  0.4063 -0.2559
 3458SOL     OW10997   0.250   0.828   1.441  0.0223 -0.3888 -0.2701
 3458SOL    HW110998   0.216   0.869   1.526 -1.9755 -2.2835 -0.0554
 3458SOL    HW210999   0.275   0.900   1.377 -1.6889  1.1683  0.6907
 3459SOL     OW11000   2.792   2.761   0.593 -1.2253 -0.2355  0.3028
 3459SOL    HW111001   2.738   2.816   0.529  1.6746  0.2353 -1.9705
 3459SOL    HW211002   2.756   2.772   0.685 -1.6738  4.4438 -0.2051
 3460SOL     OW11003   2.066   3.427   3.798  0.4691  0.5046 -0.0039
 3460SOL    HW111004   2.138   3.435   3.729 -1.0735  1.2289 -1.6050
 3460SOL    HW211005   2.050   3.330   3.819  1.0723  0.2798 -0.5603
 3461SOL     OW11006   1.864   1.570   1.564 -0.4629  0.5539 -0.0463
 3461SOL    HW111007   1.819   1.485   1.537  1.4799 -0.2861 -0.8724
 3461SOL    HW211008   1.843   1.641   1.497 -3.5553  1.3344  1.5943
 3462SOL     OW11009   3.516   4.371   0.690 -0.2569  0.3034  1.0474
 3462SOL    HW111010   3.438   4.410   0.642 -0.3638 -0.3144  0.7032
 3462SOL    HW211011   3.587   4.441   0.702 -0.5595  0.6705  0.7055
 3463SOL     OW11012   3.177   1.374   0.980 -0.0237  0.3346  0.2562
 3463SOL    HW111013   3.097   1.434   0.985 -2.1688 -1.2981 -5.8502
 3463SOL    HW211014   3.230   1.395   0.897  2.3794 -2.5782  0.8605
 3464SOL     OW11015   0.711   2.912   4.801  0.0620  0.5475  0.6615
 3464SOL    HW111016   0.648   2.835   4.804  0.1024  0.4372 -0.7421
 3464SOL    HW211017   0.771   2.909   4.881  0.3523 -1.1236  0.4182
 3465SOL     OW11018   0.956   2.511   0.600  0.0676 -0.0657  0.0279
 3465SOL    HW111019   0.881   2.510   0.535 -0.3177 -0.1365  0.4636
 3465SOL    HW211020   0.925   2.471   0.687  0.8389 -0.8386 -0.0405
 3466SOL     OW11021   2.868   2.728   2.503 -0.1692 -0.2771 -0.3621
 3466SOL    HW111022   2.923   2.798   2.546 -1.6657  1.9585 -1.8513
 3466SOL    HW211023   2.784   2.713   2.556  0.4405 -1.4964  0.3081
 3467SOL     OW11024   2.383   1.019   1.097 -0.2089  0.5219  0.6410
 3467SOL    HW111025   2.349   0.997   1.006 -0.0576  0.3684  0.6222
 3467SOL    HW211026   2.354   0.948   1.162  1.8479 -0.7494  0.2405
 3468SOL     OW11027   4.409   1.712   1.839  0.2745 -0.1694 -0.6226
 3468SOL    HW111028   4.317   1.678   1.822 -0.3795  1.3162 -0.2161
 3468SOL    HW211029   4.440   1.683   1.929 -0.2295  0.2040 -0.3255
 3469SOL     OW11030   3.225   2.285   3.094  0.8865  0.6169  0.3061
 3469SOL    HW111031   3.256   2.202   3.140 -2.1697 -1.1670 -0.5588
 3469SOL    HW211032   3.221   2.270   2.995 -1.3599  1.1009  0.2641
 3470SOL     OW11033   0.849   0.845   1.329 -0.2761 -0.6550  0.2105
 3470SOL    HW111034   0.756   0.837   1.365  0.1655 -2.8261  1.0193
 3470SOL    HW211035   0.864   0.939   1.298 -2.2117  0.1513  1.4638
 3471SOL     OW11036   1.757   0.930   3.238 -0.5435 -0.2436  0.5470
 3471SOL    HW111037   1.727   0.859   3.174 -1.0262  0.8073 -0.4167
 3471SOL    HW211038   1.770   1.016   3.189  1.3942  0.0223  1.4321
 3472SOL     OW11039   0.827   1.563   0.993 -0.0140 -0.4308 -0.5115
 3472SOL    HW111040   0.875   1.587   0.908  1.7596  1.1132  0.8371
 3472SOL    HW211041   0.739   1.610   0.996 -0.2370 -0.7408 -1.5989
 3473SOL     OW11042   1.473   2.582   2.645  0.2777 -0.5817  0.2532
 3473SOL    HW111043   1.563   2.618   2.669  1.3986 -2.6966 -0.4627
 3473SOL    HW211044   1.436   2.529   2.721 -0.1493 -0.1323  0.3655
 3474SOL     OW11045   4.859   4.312   4.623 -0.6892  0.4590 -0.5490
 3474SOL    HW111046   4.860   4.213   4.640  1.4468  0.8075  1.9498
 3474SOL    HW211047   4.951   4.344   4.602 -1.3706  1.9135 -1.4864
 3475SOL     OW11048   1.374   1.706   2.562  0.1890  0.0129 -0.2002
 3475SOL    HW111049   1.405   1.611   2.558  1.5451  0.3672  0.9258
 3475SOL    HW211050   1.329   1.730   2.476  0.5384 -1.3934 -0.8120
 3476SOL     OW11051   3.964   1.504   0.942 -0.5773  0.1915  0.2720
 3476SOL    HW111052   3.934   1.533   1.033 -2.9549  0.7572 -0.6118
 3476SOL    HW211053   3.886   1.465   0.892  0.4883  0.5378 -1.7772
 3477SOL     OW11054   0.368   3.113   0.510  0.1567  0.3796  0.7722
 3477SOL    HW111055   0.334   3.022   0.534  0.1909 -0.1616 -1.0865
 3477SOL    HW211056   0.294   3.180   0.519 -0.8236 -0.4123 -1.0323
 3478SOL     OW11057   2.813   1.396   0.848 -0.0687 -0.3681 -0.4128
 3478SOL    HW111058   2.759   1.428   0.770 -0.8906  1.3747  0.7881
 3478SOL    HW211059   2.876   1.468   0.877  1.6078 -1.7059 -0.6329
 3479SOL     OW11060   2.188   3.257   2.344  0.3112  0.7631  0.1313
 3479SOL    HW111061   2.101   3.299   2.369 -1.6701 -2.7745 -0.1826
 3479SOL    HW211062   2.186   3.233   2.247  2.4403  2.1866 -0.3345
 3480SOL     OW11063   1.276   0.127   3.740 -0.6607  0.5781 -0.5451
 3480SOL    HW111064   1.292   0.092   3.833  1.1890  1.3853 -0.5053
 3480SOL    HW211065   1.205   0.197   3.743 -1.8050 -0.5677 -0.0387
 3481SOL     OW11066   2.293   4.288   2.378 -0.2260  0.4334  0.1778
 3481SOL    HW111067   2.277   4.340   2.462 -0.4558 -1.2472  1.2298
 3481SOL    HW211068   2.392   4.271   2.369 -0.3883 -1.6820  1.6338
 3482SOL     OW11069   4.078   1.266   0.716 -0.1715 -0.4099  0.0039
 3482SOL    HW111070   4.032   1.202   0.779 -0.4203 -1.5771 -1.3243
 3482SOL    HW211071   4.172   1.280   0.746 -1.0080  1.2045  2.1766
 3483SOL     OW11072   4.497   2.375   0.969 -0.5785  0.7435  0.9240
 3483SOL    HW111073   4.543   2.438   0.907 -5.3752  0.4223 -3.6979
 3483SOL    HW211074   4.509   2.281   0.936 -1.8960  0.3621  1.4391
 3484SOL     OW11075   1.500   0.123   3.181  0.4439  0.1609  0.0157
 3484SOL    HW111076   1.413   0.088   3.215  0.8640  1.5575  2.8683
 3484SOL    HW211077   1.483   0.192   3.111 -0.9248  1.5838  1.6537
 3485SOL     OW11078   4.243   2.856   4.439 -0.4385 -0.5915 -0.2747
 3485SOL    HW111079   4.144   2.841   4.432  0.0087 -3.6201 -6.0346
 3485SOL    HW211080   4.268   2.938   4.387  0.2048  0.0641  1.0190
 3486SOL     OW11081   2.561   4.410   1.310  0.6222  0.3783  0.5404
 3486SOL    HW111082   2.554   4.459   1.397  2.0728 -0.4982  1.1940
 3486SOL    HW211083   2.480   4.429   1.254 -3.0237 -2.9559  4.0546
 3487SOL     OW11084   3.647   3.869   2.559  0.2775  0.3443 -0.0755
 3487SOL    HW111085   3.682   3.794   2.502  0.6668  0.1130  0.4669
 3487SOL    HW211086   3.554   3.848   2.589  0.9131 -0.6262  1.3081
 3488SOL     OW11087   0.890   4.559   2.319  0.4357  0.2282  0.4863
 3488SOL    HW111088   0.947   4.615   2.259 -0.5341 -0.0792 -0.7796
 3488SOL    HW211089   0.866   4.611   2.401  0.6296  1.1848 -0.0543
 3489SOL     OW11090   0.144   1.374   1.708 -0.0022  0.0226 -0.1550
 3489SOL    HW111091   0.138   1.472   1.690 -1.8885 -0.0477 -0.0819
 3489SOL    HW211092   0.105   1.353   1.797  2.7477 -0.5292  1.0136
 3490SOL     OW11093   1.035   1.553   1.200 -0.0911 -0.5147 -0.2185
 3490SOL    HW111094   0.936   1.548   1.186 -0.1784 -0.1607  0.2245
 3490SOL    HW211095   1.082   1.527   1.116 -0.5765  1.0715 -1.0226
 3491SOL     OW11096   3.651   4.646   2.393  0.6738 -0.5758 -0.2956
 3491SOL    HW111097   3.723   4.684   2.452  1.6373 -1.7026 -0.7092
 3491SOL    HW211098   3.650   4.546   2.402  0.6393 -0.7464 -1.9500
 3492SOL     OW11099   0.338   1.652   0.320  0.1735 -0.8005  0.0849
 3492SOL    HW111100   0.390   1.652   0.234 -0.3196 -1.2560 -0.2186
 3492SOL    HW211101   0.252   1.702   0.307 -0.0103 -1.0705  0.2427
 3493SOL     OW11102   0.783   4.025   2.095 -0.2266 -0.0914  0.1607
 3493SOL    HW111103   0.788   3.963   2.017  0.6535 -0.4176  0.4726
 3493SOL    HW211104   0.822   3.981   2.176  0.6613  0.9568  0.3209
 3494SOL     OW11105   3.833   1.801   1.887  0.2848  0.4442  0.6228
 3494SOL    HW111106   3.881   1.807   1.799  1.6761  4.4031  1.4243
 3494SOL    HW211107   3.840   1.708   1.922  2.3105 -0.5473 -2.0356
 3495SOL     OW11108   2.961   0.264   3.816  0.1354 -1.3954 -0.2298
 3495SOL    HW111109   2.907   0.269   3.900 -3.1425 -1.8995 -2.1272
 3495SOL    HW211110   2.986   0.169   3.797 -0.1491 -1.4335 -0.4151
 3496SOL     OW11111   2.392   2.721   4.572 -0.5682  1.2372 -1.0383
 3496SOL    HW111112   2.326   2.653   4.540  0.2453  0.6080 -1.4462
 3496SOL    HW211113   2.416   2.702   4.667 -0.3566  0.9436 -1.1453
 3497SOL     OW11114   0.351   1.963   3.133 -0.0614 -0.9450 -0.5551
 3497SOL    HW111115   0.375   2.033   3.067  2.0601 -1.0055  0.0656
 3497SOL    HW211116   0.253   1.944   3.128 -0.5246  1.3575 -1.3783
 3498SOL     OW11117   2.748   1.505   0.226  0.0188 -0.0288  0.2046
 3498SOL    HW111118   2.789   1.595   0.244 -0.3455  0.0714  0.5617
 3498SOL    HW211119   2.820   1.438   0.211  0.2906  0.3986 -0.4472
 3499SOL     OW11120   2.895   2.109   4.595 -0.1480 -0.1324  0.1637
 3499SOL    HW111121   2.807   2.078   4.633  0.3268  1.1816  2.5653
 3499SOL    HW211122   2.904   2.077   4.501 -1.6545 -3.2797  0.9435
 3500SOL     OW11123   3.460   2.276   0.305 -0.3246  0.3082 -0.3692
 3500SOL    HW111124   3.489   2.317   0.391 -2.5296  3.1337 -0.8187
 3500SOL    HW211125   3.397   2.201   0.324 -1.8996  1.7924  0.5637
 3501SOL     OW11126   0.138   1.997   4.391  0.6326  0.0314 -0.0460
 3501SOL    HW111127   0.124   1.963   4.298  1.1366 -0.6736  0.1320
 3501SOL    HW211128   0.052   1.988   4.443  0.7126 -0.8268 -0.0501
 3502SOL     OW11129   4.435   2.025   4.927 -0.4264  0.1936 -0.4290
 3502SOL    HW111130   4.430   1.947   4.990 -4.8779 -0.9604 -1.8779
 3502SOL    HW211131   4.367   2.093   4.954  2.1671  2.8963 -0.2636
 3503SOL     OW11132   3.447   3.019   1.360 -0.1383  0.1731  0.4390
 3503SOL    HW111133   3.436   3.099   1.301  0.3304  0.1418  0.3058
 3503SOL    HW211134   3.448   2.936   1.304  2.5126  0.2736  0.2159
 3504SOL     OW11135   0.341   4.097   0.354 -0.8943 -0.0170 -0.7318
 3504SOL    HW111136   0.336   4.157   0.434  0.4467  0.4718 -0.9824
 3504SOL    HW211137   0.263   4.035   0.354 -2.1180  1.4450 -0.2466
 3505SOL     OW11138   0.174   1.316   4.511 -0.6565 -0.2548 -0.1021
 3505SOL    HW111139   0.101   1.318   4.578  1.1646 -3.0152  2.2469
 3505SOL    HW211140   0.245   1.252   4.541  2.7808  2.1999 -2.1812
 3506SOL     OW11141   3.919   0.314   3.625  0.4178  0.4680 -0.0968
 3506SOL    HW111142   3.829   0.325   3.581  0.6619  0.1605 -0.6813
 3506SOL    HW211143   3.920   0.228   3.677  0.2567  0.6456  0.2033
 3507SOL     OW11144   4.178   0.322   0.542 -0.2963 -0.4602  0.0703
 3507SOL    HW111145   4.085   0.290   0.522 -1.2915  1.2954  1.5807
 3507SOL    HW211146   4.223   0.346   0.456 -2.2246  1.1438 -0.5846
 3508SOL     OW11147   4.684   0.320   2.752 -0.2137  0.4276  0.9362
 3508SOL    HW111148   4.691   0.246   2.818  3.3299 -0.4881 -0.2361
 3508SOL    HW211149   4.592   0.360   2.756 -1.4401 -2.2696  3.4027
 3509SOL     OW11150   3.262   4.036   0.033 -0.6513 -0.3440 -0.5898
 3509SOL    HW111151   3.299   4.129   0.033 -0.1572 -0.3016  4.2468
 3509SOL    HW211152   3.337   3.970   0.032 -0.7968 -0.5326  0.5126
 3510SOL     OW11153   2.758   2.010   1.655 -0.0145 -0.1111 -0.3449
 3510SOL    HW111154   2.820   1.982   1.581  1.2743  0.5869  0.4323
 3510SOL    HW211155   2.664   2.009   1.622  0.3873 -1.3387 -1.5245
 3511SOL     OW11156   2.494   4.892   4.988 -0.6358  0.4376  0.3186
 3511SOL    HW111157   2.483   4.900   5.087  1.7837 -0.4419  0.7397
 3511SOL    HW211158   2.456   4.805   4.956  1.9198 -1.1121  1.1942
 3512SOL     OW11159   1.454   0.941   4.502  1.6494 -0.5060 -0.9481
 3512SOL    HW111160   1.404   0.948   4.415  0.4533 -0.1476 -0.2604
 3512SOL    HW211161   1.405   0.992   4.572  4.0933  1.6557 -0.6796
 3513SOL     OW11162   4.249   0.033   0.531 -0.0554 -0.1670  0.1776
 3513SOL    HW111163   4.152   0.006   0.529 -0.0761 -0.1595 -2.2054
 3513SOL    HW211164   4.256   0.130   0.555 -0.5797 -0.3094  0.9392
 3514SOL     OW11165   0.440   3.599   0.161  0.2561 -0.3781 -0.6980
 3514SOL    HW111166   0.502   3.648   0.221  1.1431 -0.2026 -1.7214
 3514SOL    HW211167   0.475   3.507   0.144 -0.4831 -0.7615 -0.1964
 3515SOL     OW11168   0.030   2.370   3.319  0.4784 -0.8151  0.4450
 3515SOL    HW111169  -0.056   2.325   3.342 -0.8107  1.5526  0.5655
 3515SOL    HW211170   0.106   2.316   3.353 -0.8973 -3.2982 -0.1923
 3516SOL     OW11171   3.442   4.161   1.064  0.0461 -0.0859  0.5419
 3516SOL    HW111172   3.379   4.187   1.137 -1.6643 -1.1915 -0.4512
 3516SOL    HW211173   3.390   4.141   0.980  1.9970  2.1767 -1.3721
 3517SOL     OW11174   0.240   3.308   2.045  0.5896 -0.0391 -0.1210
 3517SOL    HW111175   0.265   3.212   2.037  0.6366 -0.0786  0.4456
 3517SOL    HW211176   0.322   3.362   2.069  0.6676  0.2148 -0.9513
 3518SOL     OW11177   4.331   0.788   3.475 -0.8568  0.7788 -0.4236
 3518SOL    HW111178   4.286   0.876   3.461 -2.0547  0.9398  3.3386
 3518SOL    HW211179   4.376   0.788   3.564 -1.3746 -2.5897 -0.0389
 3519SOL     OW11180   0.091   4.503   0.361 -0.4757 -0.9464  0.2580
 3519SOL    HW111181   0.169   4.555   0.327 -2.7705  1.0324 -2.5148
 3519SOL    HW211182   0.048   4.553   0.437 -1.2196 -0.0144 -0.7507
 3520SOL     OW11183   0.017   0.161   4.849  0.3291  0.2739  0.0287
 3520SOL    HW111184  -0.034   0.109   4.918  0.7881 -0.1573  0.0473
 3520SOL    HW211185   0.002   0.259   4.864 -1.1325  0.1403 -0.4637
 3521SOL     OW11186   4.681   4.926   2.325 -0.2341  0.6986 -0.6391
 3521SOL    HW111187   4.731   4.891   2.404 -0.4252  0.0536 -0.7978
 3521SOL    HW211188   4.595   4.968   2.355 -0.0077  1.0342 -0.4490
 3522SOL     OW11189   3.947   0.107   2.924  0.3256 -0.1214 -0.2888
 3522SOL    HW111190   3.905   0.098   3.015 -2.7721  0.4095 -1.5527
 3522SOL    HW211191   3.993   0.021   2.901  0.0040 -0.7410  1.2336
 3523SOL     OW11192   3.686   2.206   2.477 -0.3326 -0.5424 -0.1527
 3523SOL    HW111193   3.747   2.166   2.545 -0.7067  0.2510  0.6721
 3523SOL    HW211194   3.739   2.238   2.399  0.9769  3.6886  2.1526
 3524SOL     OW11195   4.477   1.243   3.578 -0.1560 -0.1003 -1.3643
 3524SOL    HW111196   4.567   1.199   3.569 -0.7144 -1.6989  0.4164
 3524SOL    HW211197   4.488   1.329   3.628  0.1937 -1.2463  0.6525
 3525SOL     OW11198   4.024   4.031   2.650 -0.2648  0.2161  0.1551
 3525SOL    HW111199   4.033   4.040   2.551 -1.5851  2.5176  0.1749
 3525SOL    HW211200   3.938   4.072   2.680 -0.8431 -2.1128  2.0979
 3526SOL     OW11201   0.338   0.108   1.147 -0.3054 -1.0900  0.2342
 3526SOL    HW111202   0.348   0.074   1.241  1.2235 -1.3779 -0.0118
 3526SOL    HW211203   0.321   0.031   1.086 -0.5336 -0.9838  0.1616
 3527SOL     OW11204   4.471   4.672   3.529 -1.1538  0.4761  0.5651
 3527SOL    HW111205   4.513   4.748   3.479  2.5781  0.5743  3.4454
 3527SOL    HW211206   4.520   4.587   3.507 -4.5661 -1.1068 -1.7680
 3528SOL     OW11207   3.307   3.481   4.588  0.1622 -0.5937 -0.1407
 3528SOL    HW111208   3.329   3.406   4.525  0.3220  0.4219 -1.3314
 3528SOL    HW211209   3.391   3.519   4.624  0.0820 -0.9469  0.4283
 3529SOL     OW11210   0.310   2.443   3.104  0.0277  0.0436 -0.4849
 3529SOL    HW111211   0.216   2.477   3.099 -0.0421 -0.3048 -2.0437
 3529SOL    HW211212   0.326   2.402   3.193 -0.5457  2.2188  0.7039
 3530SOL     OW11213   3.671   3.134   3.971 -0.6481 -1.0780 -0.6961
 3530SOL    HW111214   3.638   3.136   4.065  3.7428 -1.8570  1.0577
 3530SOL    HW211215   3.660   3.225   3.930  1.4737  0.6992  2.2633
 3531SOL     OW11216   0.052   2.634   2.865  0.1228 -0.8837 -0.5790
 3531SOL    HW111217   0.114   2.556   2.882 -0.0576 -0.8775  0.1445
 3531SOL    HW211218  -0.040   2.600   2.847 -0.0842 -0.8258  0.3251
 3532SOL     OW11219   3.660   3.296   3.439 -0.3939 -0.2354 -0.3321
 3532SOL    HW111220   3.652   3.238   3.520  0.1561  0.8232  0.5036
 3532SOL    HW211221   3.612   3.383   3.454 -0.1555  0.0428 -1.0826
 3533SOL     OW11222   3.491   0.028   1.963 -0.5345 -0.3466 -0.7345
 3533SOL    HW111223   3.472   0.102   1.898 -0.8027  1.5255  1.3605
 3533SOL    HW211224   3.552   0.061   2.034  1.6901 -3.0459 -1.2346
 3534SOL     OW11225   2.065   0.030   1.856  0.6809 -0.1180  0.0599
 3534SOL    HW111226   1.968   0.041   1.837  0.2574 -2.8405  0.2998
 3534SOL    HW211227   2.111   0.119   1.847 -1.9930  1.5064  1.1588
 3535SOL     OW11228   4.275   4.745   4.775  1.2215  0.1764  0.5534
 3535SOL    HW111229   4.302   4.841   4.781  1.3597  0.0951  1.3438
 3535SOL    HW211230   4.208   4.725   4.846 -0.4527  0.2012 -0.9474
 3536SOL     OW11231   2.601   4.851   3.854 -0.0431 -0.2522 -1.2015
 3536SOL    HW111232   2.620   4.903   3.938 -0.1373 -0.3515 -1.1179
 3536SOL    HW211233   2.620   4.908   3.774 -0.1112 -0.1013 -1.1106
 3537SOL     OW11234   1.630   3.976   0.937 -0.3602 -0.5100 -0.9564
 3537SOL    HW111235   1.657   3.966   0.842  1.2724  1.0203 -0.7148
 3537SOL    HW211236   1.710   3.964   0.996 -1.3157 -1.2984  0.2184
 3538SOL     OW11237   1.753   0.811   2.256  0.1477 -0.5348 -0.4198
 3538SOL    HW111238   1.808   0.829   2.338 -1.5479 -0.1948  0.7035
 3538SOL    HW211239   1.794   0.736   2.205  2.0863  0.2226 -0.0949
 3539SOL     OW11240   1.115   1.842   3.214  0.0412 -0.8248 -0.5139
 3539SOL    HW111241   1.104   1.896   3.298  1.7622 -1.1524 -0.0390
 3539SOL    HW211242   1.042   1.774   3.209 -1.6041  0.8715 -0.6347
 3540SOL     OW11243   4.208   2.793   3.720  0.6238  0.3516  0.0953
 3540SOL    HW111244   4.275   2.855   3.679 -0.3231  1.9850  0.9213
 3540SOL    HW211245   4.164   2.838   3.797 -2.9866  0.2274 -1.7009
 3541SOL     OW11246   3.661   4.970   1.463 -0.3479  0.1487  0.4963
 3541SOL    HW111247   3.606   4.988   1.382 -0.5430  1.4161  0.8725
 3541SOL    HW211248   3.758   4.975   1.440 -0.3997  0.9307  0.3996
 3542SOL     OW11249   4.653   0.139   4.227 -0.5611 -0.1860  0.3039
 3542SOL    HW111250   4.573   0.080   4.234 -1.3962  0.7368 -1.0069
 3542SOL    HW211251   4.675   0.177   4.317 -0.0050 -2.4161  1.1868
 3543SOL     OW11252   4.869   1.118   0.616 -0.0769  0.5016  1.5666
 3543SOL    HW111253   4.795   1.094   0.553  0.5967 -0.7490  1.2146
 3543SOL    HW211254   4.957   1.102   0.572  0.4176  1.6026  2.1194
 3544SOL     OW11255   4.797   1.824   3.747  0.0642 -0.6318  0.1463
 3544SOL    HW111256   4.792   1.923   3.760 -2.3236 -0.8771  1.6394
 3544SOL    HW211257   4.776   1.802   3.652  1.6075  0.2989 -0.4556
 3545SOL     OW11258   3.286   3.349   0.513  0.2919  0.0025 -0.1076
 3545SOL    HW111259   3.302   3.419   0.582 -1.2188  0.3687 -0.0907
 3545SOL    HW211260   3.360   3.351   0.445  0.3134  1.5624 -0.0640
 3546SOL     OW11261   2.373   0.530   2.761 -0.0373  0.4071 -0.0862
 3546SOL    HW111262   2.364   0.562   2.855  1.4055 -0.1534  0.2696
 3546SOL    HW211263   2.470   0.511   2.741 -0.3172  0.5321 -1.6869
 3547SOL     OW11264   2.987   3.509   3.513 -0.4422  0.0649 -0.1495
 3547SOL    HW111265   2.951   3.417   3.525  1.3184 -0.9383 -1.9537
 3547SOL    HW211266   3.069   3.506   3.456  2.2272  2.2397  3.1717
 3548SOL     OW11267   0.630   2.359   1.761  0.3577  0.3679 -0.2158
 3548SOL    HW111268   0.558   2.411   1.716 -1.2846 -1.3955  0.1868
 3548SOL    HW211269   0.614   2.359   1.860 -1.8043 -3.5055 -0.3396
 3549SOL     OW11270   0.024   0.436   2.135  0.2072 -0.5547 -0.2340
 3549SOL    HW111271  -0.041   0.360   2.135 -1.5691  0.8770 -1.2456
 3549SOL    HW211272  -0.022   0.519   2.105  2.5451  0.5443 -1.0284
 3550SOL     OW11273   4.757   2.500   1.464 -0.7176 -0.7326  0.6544
 3550SOL    HW111274   4.725   2.406   1.456  1.9842 -1.6200 -1.1223
 3550SOL    HW211275   4.791   2.532   1.376  0.1368  1.2595  1.6261
 3551SOL     OW11276   4.630   0.107   0.579  0.5617 -0.1621  0.2932
 3551SOL    HW111277   4.676   0.193   0.600  0.0563 -0.5196  3.1879
 3551SOL    HW211278   4.664   0.072   0.491  6.0985 -0.5137  2.1510
 3552SOL     OW11279   3.263   3.178   1.650 -0.0573  0.3238  0.5329
 3552SOL    HW111280   3.294   3.083   1.658 -1.5295 -0.2465 -0.0926
 3552SOL    HW211281   3.164   3.182   1.662  0.3284  2.3120  4.3535
 3553SOL     OW11282   3.898   3.202   4.537 -0.3666  0.2840  0.8671
 3553SOL    HW111283   3.894   3.161   4.628 -2.1961 -2.0126 -0.1448
 3553SOL    HW211284   3.976   3.165   4.486 -0.7179 -0.2434  0.7106
 3554SOL     OW11285   2.215   3.134   3.472 -0.2045  0.1370  0.4514
 3554SOL    HW111286   2.127   3.108   3.513 -1.0347  1.3530 -0.4899
 3554SOL    HW211287   2.200   3.203   3.402  1.4135 -0.3768 -0.4577
 3555SOL     OW11288   1.001   1.261   0.916 -0.2667  0.4651 -0.5855
 3555SOL    HW111289   0.958   1.249   0.826 -1.1579  0.4280 -0.1684
 3555SOL    HW211290   0.933   1.246   0.987  0.3956  0.6539  0.0986
 3556SOL     OW11291   0.072   4.149   1.902  0.3298  0.8906  0.1295
 3556SOL    HW111292   0.100   4.054   1.914  1.3232  1.3354  1.6044
 3556SOL    HW211293   0.152   4.205   1.881 -0.4803  1.1805 -2.6194
 3557SOL     OW11294   3.988   2.926   2.882 -0.2966  0.2498 -0.2728
 3557SOL    HW111295   3.911   2.972   2.838 -0.4895  0.8700  0.6787
 3557SOL    HW211296   3.981   2.937   2.981 -0.6759 -2.3250  0.0644
 3558SOL     OW11297   0.436   4.629   1.405  0.3375  0.2923 -0.0129
 3558SOL    HW111298   0.426   4.700   1.335 -0.9734  1.7407  1.5633
 3558SOL    HW211299   0.464   4.670   1.491 -2.9954 -0.6034  1.6765
 3559SOL     OW11300   4.889   0.193   2.089 -0.0871  0.0649  0.2189
 3559SOL    HW111301   4.816   0.128   2.068 -0.9273  0.5376  1.5238
 3559SOL    HW211302   4.976   0.157   2.056 -0.0339 -3.0913  3.1499
 3560SOL     OW11303   1.250   1.434   3.639  0.2501 -0.2168  0.2523
 3560SOL    HW111304   1.283   1.525   3.664  1.3164 -0.6190  0.3504
 3560SOL    HW211305   1.162   1.417   3.683 -0.1331  0.8945 -0.0487
 3561SOL     OW11306   2.730   1.763   3.876 -0.8280  1.1037 -0.4748
 3561SOL    HW111307   2.791   1.719   3.811 -0.6046  0.1510  0.3554
 3561SOL    HW211308   2.654   1.805   3.827 -1.6091 -1.0901 -1.2758
 3562SOL     OW11309   0.882   3.324   2.063 -0.5685 -0.3773  0.1180
 3562SOL    HW111310   0.886   3.225   2.049  4.7756 -0.4402  0.0065
 3562SOL    HW211311   0.905   3.345   2.159 -2.2071  0.8252  0.2957
 3563SOL     OW11312   2.960   4.891   0.975 -0.0927 -0.3155  0.4719
 3563SOL    HW111313   2.876   4.939   1.001 -1.5394 -1.7479 -1.2663
 3563SOL    HW211314   2.990   4.922   0.885  1.3361  0.2219  1.0948
 3564SOL     OW11315   2.158   1.296   1.422  0.2887 -1.2289  0.2852
 3564SOL    HW111316   2.065   1.330   1.439  0.4209  1.7701 -3.6581
 3564SOL    HW211317   2.158   1.197   1.427 -2.8742 -1.2917  1.4180
 3565SOL     OW11318   2.806   4.276   3.805  0.7305 -0.4381 -0.2841
 3565SOL    HW111319   2.886   4.216   3.796  0.4835 -1.0200  1.1413
 3565SOL    HW211320   2.747   4.242   3.878  1.4863  2.4918  1.8935
 3566SOL     OW11321   0.757   3.404   4.556  0.1100  0.4057 -0.5496
 3566SOL    HW111322   0.739   3.326   4.496  0.3463 -0.0798  0.0072
 3566SOL    HW211323   0.818   3.376   4.629 -2.4513  0.1535  1.6493
 3567SOL     OW11324   0.572   4.138   4.037  0.4639 -0.1841  0.0554
 3567SOL    HW111325   0.525   4.226   4.030  0.8757 -0.0730 -1.7353
 3567SOL    HW211326   0.509   4.069   4.074 -0.2518  0.5605  0.2510
 3568SOL     OW11327   1.448   0.108   1.077 -0.2255  0.3349 -1.2802
 3568SOL    HW111328   1.421   0.012   1.080  1.6182 -0.2061 -0.6841
 3568SOL    HW211329   1.545   0.115   1.053  0.5758  1.8439  1.9116
 3569SOL     OW11330   0.943   1.648   0.754  0.4889 -0.2038  0.1175
 3569SOL    HW111331   0.888   1.686   0.680  1.5750 -0.7054 -0.9951
 3569SOL    HW211332   1.039   1.673   0.739  0.6856  0.0055  1.5853
 3570SOL     OW11333   1.116   2.177   3.617 -0.1077  0.7588 -0.2484
 3570SOL    HW111334   1.095   2.211   3.525 -1.4300 -2.3724 -1.2119
 3570SOL    HW211335   1.215   2.168   3.627  0.0064 -0.0207 -1.8365
 3571SOL     OW11336   3.002   1.203   4.182  0.1216 -0.0684 -0.9620
 3571SOL    HW111337   2.921   1.209   4.123 -1.0355 -1.3586  0.4084
 3571SOL    HW211338   3.026   1.294   4.216 -1.6104  0.1799 -0.3209
 3572SOL     OW11339   2.266   0.296   0.682 -0.0525  0.6757  0.6306
 3572SOL    HW111340   2.276   0.197   0.667 -0.8032  0.7313 -0.3692
 3572SOL    HW211341   2.172   0.316   0.711 -0.5410  1.2789 -1.2068
 3573SOL     OW11342   3.097   1.143   1.793 -0.1571 -0.5481 -0.0347
 3573SOL    HW111343   3.133   1.135   1.886 -1.2345  0.2102  0.4600
 3573SOL    HW211344   3.174   1.146   1.728  0.6018 -1.1217  0.8134
 3574SOL     OW11345   4.459   3.488   0.050  0.1246 -0.0268  0.6383
 3574SOL    HW111346   4.404   3.422   0.101  0.1677  0.1205  0.8819
 3574SOL    HW211347   4.544   3.506   0.100 -0.2787  0.8711  1.0331
 3575SOL     OW11348   1.586   4.347   1.332 -0.5657  0.0456  0.0637
 3575SOL    HW111349   1.604   4.349   1.233 -1.6666 -1.7482 -0.2295
 3575SOL    HW211350   1.534   4.264   1.354  0.6826 -0.2123  2.3350
 3576SOL     OW11351   2.421   4.440   3.487 -0.4615  0.4504  0.3494
 3576SOL    HW111352   2.326   4.467   3.470 -0.4462  0.9863  1.0301
 3576SOL    HW211353   2.440   4.448   3.585 -0.2520 -1.4636  0.4896
 3577SOL     OW11354   4.385   1.186   4.957  0.0931 -0.0535  0.1539
 3577SOL    HW111355   4.300   1.137   4.976 -0.6305  0.7954 -0.7874
 3577SOL    HW211356   4.397   1.196   4.859  1.6650 -0.7634  0.2335
 3578SOL     OW11357   2.003   0.691   0.778 -0.3867 -0.3337 -0.1164
 3578SOL    HW111358   2.006   0.760   0.706  0.0813 -0.4762 -0.2383
 3578SOL    HW211359   2.074   0.623   0.762  1.1457  0.7394  1.5725
 3579SOL     OW11360   0.180   1.989   3.797  0.1578  0.4878  0.0428
 3579SOL    HW111361   0.093   1.984   3.846 -0.8612  0.7185 -1.6467
 3579SOL    HW211362   0.221   1.898   3.791  0.7152  0.5763  1.9574
 3580SOL     OW11363   3.948   1.000   2.730  0.0200  0.0932  0.2012
 3580SOL    HW111364   3.854   0.970   2.719  0.1999 -0.4236  0.0341
 3580SOL    HW211365   4.003   0.968   2.652  0.5358 -0.4440  0.7715
 3581SOL     OW11366   0.126   4.712   3.887  0.1544 -0.7739 -0.5505
 3581SOL    HW111367   0.154   4.780   3.955 -1.7040 -0.4440 -0.0615
 3581SOL    HW211368   0.161   4.622   3.913 -3.2015 -1.4009  2.8951
 3582SOL     OW11369   3.292   3.838   3.541  0.0765  0.4425 -0.3990
 3582SOL    HW111370   3.336   3.842   3.631  0.7167  1.1566 -0.7357
 3582SOL    HW211371   3.346   3.890   3.475 -1.8087  2.2818 -0.6035
 3583SOL     OW11372   3.085   1.034   1.061  0.3553 -1.0340 -0.1268
 3583SOL    HW111373   3.091   0.989   0.972  0.9252 -2.3510  0.5493
 3583SOL    HW211374   3.070   1.132   1.048  0.9146 -1.1280 -1.6711
 3584SOL     OW11375   2.044   0.354   0.185  0.3849 -0.7272 -0.0263
 3584SOL    HW111376   1.952   0.388   0.205  1.6435  2.3875  1.0127
 3584SOL    HW211377   2.078   0.302   0.263  0.2575 -0.0961  0.4597
 3585SOL     OW11378   3.267   2.681   2.261  0.7808 -0.1090  0.2883
 3585SOL    HW111379   3.176   2.671   2.222  0.7301  2.5606 -0.4807
 3585SOL    HW211380   3.290   2.599   2.314 -1.0819 -1.8217 -1.4016
 3586SOL     OW11381   1.655   3.120   4.647  0.1402  0.3918  0.6047
 3586SOL    HW111382   1.717   3.128   4.569  0.6996 -2.2081  0.6856
 3586SOL    HW211383   1.561   3.133   4.616  0.3856 -0.2057 -0.4718
 3587SOL     OW11384   1.007   4.001   1.317 -0.4113 -0.0797  0.2939
 3587SOL    HW111385   1.083   4.011   1.253 -0.2481  1.8270  0.7058
 3587SOL    HW211386   1.036   3.947   1.396 -1.6020 -5.5961 -2.5829
 3588SOL     OW11387   3.255   3.090   2.510  0.4698  0.0133  0.2891
 3588SOL    HW111388   3.306   3.108   2.425 -0.3597  0.0021 -0.2166
 3588SOL    HW211389   3.211   3.174   2.541  1.3596  0.1921  1.1192
 3589SOL     OW11390   2.122   2.713   3.948 -0.9102 -0.1896 -0.0875
 3589SOL    HW111391   2.184   2.745   3.876  1.8660 -6.2069 -1.0343
 3589SOL    HW211392   2.158   2.740   4.037  0.0931  0.8129 -0.7740
 3590SOL     OW11393   1.823   0.868   0.911  0.2142  0.2161  0.4490
 3590SOL    HW111394   1.890   0.809   0.865  1.7055  0.0336  2.7000
 3590SOL    HW211395   1.869   0.949   0.947 -0.5398 -0.2565  2.6804
 3591SOL     OW11396   3.206   4.952   1.450  1.2528  0.4530  0.2507
 3591SOL    HW111397   3.283   4.955   1.513  1.5374 -2.2695  0.1429
 3591SOL    HW211398   3.121   4.945   1.502  1.4091 -0.6593  0.3848
 3592SOL     OW11399   1.021   4.460   4.580  0.1574 -0.1385 -0.5622
 3592SOL    HW111400   1.066   4.373   4.560  0.0372 -0.3632  0.1100
 3592SOL    HW211401   1.090   4.529   4.602  0.1973 -0.4477  0.3373
 3593SOL     OW11402   4.865   3.428   0.302 -1.1613  1.2951  0.5331
 3593SOL    HW111403   4.850   3.428   0.203  0.3954  0.3165  0.2692
 3593SOL    HW211404   4.857   3.335   0.338  1.4999  1.0463  0.7303
 3594SOL     OW11405   3.009   1.571   0.897 -0.2194 -0.6157 -0.6556
 3594SOL    HW111406   3.042   1.647   0.953 -1.4204  1.2053 -2.3005
 3594SOL    HW211407   3.075   1.552   0.824 -0.3785 -0.4882 -0.8330
 3595SOL     OW11408   0.704   0.809   0.192 -0.1797  0.2575 -0.0143
 3595SOL    HW111409   0.606   0.794   0.206 -0.2685  0.8499  0.0594
 3595SOL    HW211410   0.743   0.852   0.274  0.1854 -0.1649  0.0365
 3596SOL     OW11411   3.746   2.438   4.010  1.2205  0.5444 -0.0389
 3596SOL    HW111412   3.660   2.387   4.017  1.6104  0.0922  2.4528
 3596SOL    HW211413   3.741   2.503   3.934  0.7120 -3.1362 -3.5085
 3597SOL     OW11414   4.414   0.877   4.050  0.0742 -0.4420  0.1378
 3597SOL    HW111415   4.351   0.879   3.973  0.1468  2.1040  0.0789
 3597SOL    HW211416   4.370   0.832   4.128 -0.9159 -0.8308 -0.6224
 3598SOL     OW11417   1.955   0.968   4.604  0.1171  0.7774 -0.1162
 3598SOL    HW111418   1.898   1.050   4.594  1.9846  2.1708  0.1870
 3598SOL    HW211419   1.916   0.910   4.676  0.2497  2.7885  1.6906
 3599SOL     OW11420   3.652   2.180   4.565  0.0710 -0.5318  0.4138
 3599SOL    HW111421   3.667   2.081   4.569  0.9508 -0.4619 -0.5813
 3599SOL    HW211422   3.604   2.203   4.481  3.4879  0.2237 -1.5275
 3600SOL     OW11423   1.950   3.880   4.582  0.0676 -0.7328 -0.9454
 3600SOL    HW111424   2.028   3.925   4.626  0.6819 -3.3342  0.8788
 3600SOL    HW211425   1.983   3.803   4.527 -1.1608 -1.9734 -0.0059
 3601SOL     OW11426   0.912   0.412   1.067 -0.1234 -0.1443  0.5356
 3601SOL    HW111427   0.820   0.415   1.027  0.4929  1.4566 -0.8706
 3601SOL    HW211428   0.943   0.504   1.088  2.0443 -0.4046 -1.1835
 3602SOL     OW11429   4.107   0.837   3.285 -0.0273  0.2471 -0.1844
 3602SOL    HW111430   4.063   0.839   3.195 -0.4311  0.5904  0.0157
 3602SOL    HW211431   4.164   0.755   3.293 -0.4785 -0.1022 -0.5210
 3603SOL     OW11432   4.325   1.450   4.828 -0.3362  0.9103 -0.5767
 3603SOL    HW111433   4.323   1.387   4.905  1.8835  3.6027  1.9333
 3603SOL    HW211434   4.232   1.463   4.793 -1.4503 -0.3659  1.6822
 3604SOL     OW11435   0.159   3.677   2.412  0.4389  0.0649 -0.0880
 3604SOL    HW111436   0.172   3.652   2.316  1.6177 -0.7112  0.2530
 3604SOL    HW211437   0.062   3.691   2.430  0.1173 -0.6477 -1.1869
 3605SOL     OW11438   3.805   4.152   4.140 -0.8919 -0.4721  0.8695
 3605SOL    HW111439   3.842   4.063   4.167  2.0914  0.3624 -0.1554
 3605SOL    HW211440   3.871   4.224   4.161 -1.6088  1.0716 -1.6940
 3606SOL     OW11441   3.590   0.155   1.672  0.2548 -0.8728  0.9278
 3606SOL    HW111442   3.610   0.074   1.617 -2.5355  0.9475 -3.2990
 3606SOL    HW211443   3.624   0.237   1.624 -5.2623  1.1505 -0.2994
 3607SOL     OW11444   0.871   3.607   1.863 -0.5628  0.6837  0.2168
 3607SOL    HW111445   0.869   3.696   1.907  0.3591  0.6408  0.3589
 3607SOL    HW211446   0.950   3.602   1.802  1.3861 -1.1868  2.6979
 3608SOL     OW11447   4.505   2.707   4.931 -0.4042 -0.0194 -0.0500
 3608SOL    HW111448   4.453   2.700   4.846  0.0602  0.2573 -0.3629
 3608SOL    HW211449   4.525   2.803   4.950 -1.7998  0.0632  1.1814
 3609SOL     OW11450   1.056   1.031   3.879 -0.5725  0.1888 -0.3530
 3609SOL    HW111451   1.032   1.113   3.930 -2.8911 -0.8800  0.4235
 3609SOL    HW211452   1.138   0.990   3.918 -0.3045  1.2697  0.2536
 3610SOL     OW11453   3.771   0.539   4.491  0.4507  0.6425 -0.1670
 3610SOL    HW111454   3.816   0.475   4.554  2.4041  3.0290  1.0104
 3610SOL    HW211455   3.821   0.541   4.404 -0.9720 -1.0093 -1.1166
 3611SOL     OW11456   4.471   2.382   2.975  0.5670 -0.6683 -0.1441
 3611SOL    HW111457   4.538   2.313   3.002  1.3248  0.6699  1.6280
 3611SOL    HW211458   4.515   2.472   2.975 -1.3149  0.3305  1.5341
 3612SOL     OW11459   2.714   3.935   0.377  0.5082  0.1638  0.0967
 3612SOL    HW111460   2.783   3.878   0.331  2.2065  1.7190  0.5893
 3612SOL    HW211461   2.631   3.938   0.322  1.5597 -0.1217 -1.5793
 3613SOL     OW11462   2.744   2.433   1.766 -0.6298  0.6824  0.4426
 3613SOL    HW111463   2.672   2.368   1.740 -2.6004  2.1224  1.9406
 3613SOL    HW211464   2.756   2.501   1.694 -1.3280  0.8620  0.4903
 3614SOL     OW11465   3.657   3.025   1.079 -0.5286 -0.6382 -0.6863
 3614SOL    HW111466   3.702   2.983   1.158  1.4294 -0.4945 -1.6443
 3614SOL    HW211467   3.679   3.123   1.078 -3.8697  0.2517  0.7456
 3615SOL     OW11468   2.500   1.514   1.564  0.3335 -0.3543  1.6480
 3615SOL    HW111469   2.587   1.560   1.547  0.5933 -1.2932  0.2398
 3615SOL    HW211470   2.510   1.417   1.545 -1.7337 -0.0776 -1.5472
 3616SOL     OW11471   0.742   0.746   2.771  0.1021 -0.4941  0.2083
 3616SOL    HW111472   0.690   0.707   2.695 -0.3752  1.4826 -0.5512
 3616SOL    HW211473   0.681   0.803   2.826  1.2145  1.0729 -0.1109
 3617SOL     OW11474   2.386   3.803   2.472 -0.0709  0.5057 -0.8065
 3617SOL    HW111475   2.456   3.745   2.429 -1.6276 -0.7681 -1.7306
 3617SOL    HW211476   2.316   3.827   2.404 -1.3606  0.4279  0.4607
 3618SOL     OW11477   4.588   0.167   1.746 -0.2670 -0.5908  0.0435
 3618SOL    HW111478   4.588   0.068   1.732 -2.1395 -1.2120  3.4830
 3618SOL    HW211479   4.608   0.187   1.842 -0.8706  2.3310 -0.3623
 3619SOL     OW11480   2.403   0.028   2.890 -0.0674 -0.9495  0.6428
 3619SOL    HW111481   2.338   0.061   2.823 -0.7540  0.3015  1.8801
 3619SOL    HW211482   2.449   0.105   2.933  1.5232 -1.7790  0.5125
 3620SOL     OW11483   3.955   3.907   2.252 -0.0721 -0.5016 -0.1328
 3620SOL    HW111484   3.990   3.819   2.220 -0.3615 -0.9606  0.7764
 3620SOL    HW211485   3.865   3.924   2.212  1.2605  0.8564 -2.7792
 3621SOL     OW11486   4.063   1.973   1.743  0.0403  0.0793 -0.1105
 3621SOL    HW111487   4.141   1.938   1.691  1.7473  2.5732  0.5846
 3621SOL    HW211488   4.084   1.970   1.840 -0.3254  1.6034  0.0430
 3622SOL     OW11489   2.313   2.785   0.917  0.9719  0.1210  0.3968
 3622SOL    HW111490   2.409   2.813   0.908  1.4312 -1.4744  0.1105
 3622SOL    HW211491   2.256   2.843   0.859  1.5990  1.8086  1.3854
 3623SOL     OW11492   2.331   1.527   3.902  0.3274 -0.4685 -0.1939
 3623SOL    HW111493   2.332   1.484   3.812 -1.7998  1.1607 -1.0836
 3623SOL    HW211494   2.334   1.456   3.973  0.6369 -1.8513 -1.5304
 3624SOL     OW11495   3.296   2.451   4.956  0.0136  0.2038  0.0150
 3624SOL    HW111496   3.262   2.544   4.972 -0.7507  0.6262 -3.2885
 3624SOL    HW211497   3.219   2.389   4.940  0.5772 -0.4582 -0.2232
 3625SOL     OW11498   4.100   0.647   3.538 -0.2605  0.7022 -0.2515
 3625SOL    HW111499   4.090   0.548   3.528 -0.8475  0.8110 -0.8084
 3625SOL    HW211500   4.187   0.676   3.497 -0.4005  0.5008 -0.6920
 3626SOL     OW11501   0.345   3.564   2.848 -0.3130  0.0008 -0.1994
 3626SOL    HW111502   0.365   3.613   2.763  1.3022 -1.1560 -0.5497
 3626SOL    HW211503   0.416   3.495   2.863 -2.2752 -1.9610  0.4666
 3627SOL     OW11504   3.422   3.188   0.029  0.0266  0.3879  0.1914
 3627SOL    HW111505   3.359   3.185   0.107 -2.9490  0.5719 -2.0154
 3627SOL    HW211506   3.506   3.235   0.055 -1.5168  1.8865  2.8355
 3628SOL     OW11507   1.426   3.833   4.183  0.4668  0.3518 -0.7685
 3628SOL    HW111508   1.450   3.896   4.109 -3.0981  1.9831 -0.7194
 3628SOL    HW211509   1.469   3.862   4.268  0.8605  1.2105 -1.2532
 3629SOL     OW11510   4.123   3.421   2.775  0.5140 -0.8450  0.6289
 3629SOL    HW111511   4.116   3.517   2.802 -0.7250 -0.5141 -0.7383
 3629SOL    HW211512   4.065   3.365   2.834 -2.4241 -0.0900 -1.3386
 3630SOL     OW11513   1.679   1.238   2.853 -0.3074 -0.0450 -1.2656
 3630SOL    HW111514   1.756   1.222   2.915 -0.1432  1.4616 -1.0583
 3630SOL    HW211515   1.600   1.185   2.885 -0.5166  1.3864  0.8280
 3631SOL     OW11516   4.716   3.751   4.643 -0.2042 -0.3108 -0.3854
 3631SOL    HW111517   4.695   3.679   4.709 -1.5787  0.2323 -0.1833
 3631SOL    HW211518   4.718   3.713   4.551 -4.5464 -0.1678 -0.7470
 3632SOL     OW11519   0.808   2.581   3.343 -0.9818 -0.0078 -0.4562
 3632SOL    HW111520   0.852   2.564   3.256  0.9432  1.0618  0.2439
 3632SOL    HW211521   0.756   2.666   3.338 -2.8999 -1.1675 -1.2222
 3633SOL     OW11522   3.803   3.376   3.212  0.6896 -0.2167  0.0044
 3633SOL    HW111523   3.721   3.362   3.157  0.0116  2.4548  0.1999
 3633SOL    HW211524   3.785   3.345   3.306  0.3499 -0.8061 -0.2489
 3634SOL     OW11525   4.148   1.657   0.701 -0.2606 -0.0517  0.5145
 3634SOL    HW111526   4.106   1.595   0.635 -1.4915 -3.1549  3.9050
 3634SOL    HW211527   4.083   1.677   0.774  0.9411  3.4311  0.8114
 3635SOL     OW11528   3.373   3.007   0.502  0.2468  0.2299  0.1394
 3635SOL    HW111529   3.346   3.101   0.481  0.5285  0.3999  0.5346
 3635SOL    HW211530   3.405   2.963   0.418 -1.2660  0.0118 -0.3495
 3636SOL     OW11531   4.732   2.322   2.636  0.7130 -0.0723  0.7267
 3636SOL    HW111532   4.668   2.382   2.684  0.2576 -1.2255  1.5980
 3636SOL    HW211533   4.768   2.370   2.555  0.0779  1.2158  1.1810
 3637SOL     OW11534   0.045   3.722   4.653 -0.5478 -0.3664  0.6872
 3637SOL    HW111535   0.001   3.641   4.615  1.5112 -0.4903 -1.7011
 3637SOL    HW211536   0.018   3.802   4.600 -1.0390  0.2123  1.7922
 3638SOL     OW11537   2.716   3.768   1.306 -0.0072  0.0321  0.0977
 3638SOL    HW111538   2.712   3.784   1.207 -2.8834  1.9996  0.4179
 3638SOL    HW211539   2.774   3.837   1.348  1.8847 -1.2898 -0.2125
 3639SOL     OW11540   2.891   0.850   4.137 -0.9530  0.6076 -0.1493
 3639SOL    HW111541   2.969   0.826   4.195 -0.6658  0.4905 -0.5798
 3639SOL    HW211542   2.868   0.947   4.151 -0.1140  0.9045 -0.7259
 3640SOL     OW11543   3.381   1.685   0.132 -0.1956  0.6433 -0.8255
 3640SOL    HW111544   3.422   1.702   0.221  0.8608 -0.1017 -1.1424
 3640SOL    HW211545   3.379   1.770   0.079  3.1722  0.3190 -1.6711
 3641SOL     OW11546   3.571   0.407   3.146  0.7205 -0.8917 -0.0330
 3641SOL    HW111547   3.510   0.481   3.118  1.9000  0.2986  0.4052
 3641SOL    HW211548   3.606   0.360   3.066  1.2443  0.1230 -0.4183
 3642SOL     OW11549   4.748   4.167   0.660 -0.3020 -0.2400 -0.6741
 3642SOL    HW111550   4.839   4.176   0.619  0.3777 -1.9624  0.3421
 3642SOL    HW211551   4.737   4.237   0.731  2.3157 -2.9460  2.7120
 3643SOL     OW11552   4.702   4.790   2.969 -0.5287  0.5847 -0.1823
 3643SOL    HW111553   4.737   4.875   3.008  0.5198 -0.8457  2.2251
 3643SOL    HW211554   4.706   4.795   2.869  2.8647  2.0544 -0.1137
 3644SOL     OW11555   0.715   1.514   0.411 -0.0318 -0.1848  0.2331
 3644SOL    HW111556   0.637   1.540   0.468 -0.9878 -0.5649 -0.8757
 3644SOL    HW211557   0.770   1.446   0.460  1.1402  1.9758  2.1440
 3645SOL     OW11558   3.749   2.911   1.300  0.3767  0.4100  0.6902
 3645SOL    HW111559   3.663   2.862   1.316 -0.6462  2.3656  1.4114
 3645SOL    HW211560   3.803   2.912   1.384  1.4605 -1.3465  0.0827
 3646SOL     OW11561   2.053   0.520   4.440 -0.5424 -0.0424  0.0517
 3646SOL    HW111562   2.097   0.447   4.492  1.0937  1.5078  0.9666
 3646SOL    HW211563   1.958   0.529   4.469 -0.9635 -2.1179 -0.4792
 3647SOL     OW11564   1.821   2.630   4.158  0.7737 -0.3464  1.3680
 3647SOL    HW111565   1.829   2.641   4.257 -1.0121 -1.9520  1.7449
 3647SOL    HW211566   1.735   2.583   4.136  0.8547  0.4723 -0.9979
 3648SOL     OW11567   4.370   0.540   2.133 -0.3214 -0.2744  0.4755
 3648SOL    HW111568   4.378   0.462   2.195 -0.7323  1.0657  2.2990
 3648SOL    HW211569   4.304   0.606   2.171  1.9065  2.1737  0.3788
 3649SOL     OW11570   0.574   2.859   3.047 -0.5268  0.4964 -0.4294
 3649SOL    HW111571   0.632   2.788   3.005 -0.9108  0.9059 -1.6796
 3649SOL    HW211572   0.478   2.837   3.033 -0.6507  1.3515 -0.9905
 3650SOL     OW11573   2.228   3.434   1.014 -0.1821  0.3999 -0.2144
 3650SOL    HW111574   2.324   3.434   0.985  1.2833 -0.0943  4.0102
 3650SOL    HW211575   2.210   3.355   1.073 -3.6895 -0.3196 -1.9415
 3651SOL     OW11576   4.281   4.834   1.732 -0.3491 -0.3199 -0.8013
 3651SOL    HW111577   4.270   4.911   1.794  1.8854  0.4753 -1.3216
 3651SOL    HW211578   4.271   4.865   1.637  0.7689 -0.6027 -1.0241
 3652SOL     OW11579   0.381   1.887   4.527 -0.2005 -0.0850 -0.4162
 3652SOL    HW111580   0.306   1.893   4.462  0.3721 -1.5131 -1.2565
 3652SOL    HW211581   0.380   1.967   4.587 -1.1906  0.8912 -1.6843
 3653SOL     OW11582   3.168   4.450   3.289 -0.4018 -0.6108 -0.9487
 3653SOL    HW111583   3.136   4.488   3.376 -1.0087 -2.0111 -0.5130
 3653SOL    HW211584   3.214   4.363   3.307  4.2408  1.4511 -1.4773
 3654SOL     OW11585   3.288   3.740   4.944 -0.0007  0.3954  0.1768
 3654SOL    HW111586   3.257   3.645   4.941  1.0307 -0.0146  1.5110
 3654SOL    HW211587   3.213   3.799   4.972 -0.6845  0.0043 -0.7856
 3655SOL     OW11588   2.678   3.639   4.456  0.5797  1.0598 -0.3179
 3655SOL    HW111589   2.649   3.728   4.421  2.9788  1.9568 -0.2675
 3655SOL    HW211590   2.736   3.594   4.389  0.5422  0.1776  0.2263
 3656SOL     OW11591   3.727   4.971   1.862 -0.2247  0.1043  0.2751
 3656SOL    HW111592   3.664   4.956   1.938  1.2277  0.1380  1.5439
 3656SOL    HW211593   3.687   5.036   1.798 -2.7674 -2.1822 -0.6292
 3657SOL     OW11594   3.603   4.371   2.477  0.3429  0.0881  0.7193
 3657SOL    HW111595   3.513   4.414   2.479 -0.0259 -0.4792 -1.1687
 3657SOL    HW211596   3.594   4.274   2.453  1.5207  0.4607 -1.5588
 3658SOL     OW11597   1.073   1.119   2.783 -0.0948 -0.0183  0.1044
 3658SOL    HW111598   1.134   1.198   2.780 -1.9812  1.4669 -1.8689
 3658SOL    HW211599   1.097   1.056   2.709  0.4291 -0.5785  0.7324
 3659SOL     OW11600   1.864   4.654   3.431  0.6750  0.2743  0.1233
 3659SOL    HW111601   1.912   4.619   3.511  0.8357  2.9512  1.3061
 3659SOL    HW211602   1.906   4.618   3.348  1.1864 -1.7286  1.1859
 3660SOL     OW11603   0.341   4.408   0.857 -0.1958 -0.1460  0.8362
 3660SOL    HW111604   0.297   4.478   0.913 -0.1535  0.2919  0.3186
 3660SOL    HW211605   0.355   4.442   0.765 -0.8260 -1.0820  0.3743
 3661SOL     OW11606   3.742   4.547   0.646  0.1028  0.9842  0.1036
 3661SOL    HW111607   3.732   4.584   0.738 -3.1015  2.0245 -0.5572
 3661SOL    HW211608   3.727   4.620   0.579  0.6891 -0.1011 -1.2491
 3662SOL     OW11609   0.944   4.109   3.053  0.3235  0.3220 -0.0349
 3662SOL    HW111610   1.008   4.060   3.112  0.6378  0.0555 -0.5929
 3662SOL    HW211611   0.987   4.192   3.019  0.2293  0.3491 -0.0880
 3663SOL     OW11612   2.024   1.187   0.824 -0.0986 -0.4153 -0.0017
 3663SOL    HW111613   2.076   1.247   0.764 -1.1997  2.0834  1.4065
 3663SOL    HW211614   2.085   1.119   0.865  1.8752  1.7084  0.7416
 3664SOL     OW11615   3.347   2.293   2.556  0.3419  0.3306 -0.4650
 3664SOL    HW111616   3.279   2.241   2.609 -1.0493  1.9728 -0.5644
 3664SOL    HW211617   3.357   2.252   2.465  0.9161 -1.0345  0.1743
 3665SOL     OW11618   3.306   4.808   1.236  0.4316 -1.2959 -0.3284
 3665SOL    HW111619   3.405   4.794   1.234  0.7885  0.0408  2.5536
 3665SOL    HW211620   3.285   4.887   1.293 -2.3553 -1.7411 -0.6002
 3666SOL     OW11621   4.980   3.780   2.147  0.6281 -0.2021  0.2778
 3666SOL    HW111622   4.935   3.801   2.060 -1.1308  0.4726  1.2974
 3666SOL    HW211623   4.911   3.756   2.215  1.9474 -0.4592  1.5754
 3667SOL     OW11624   3.144   1.872   0.500  0.2526 -0.3856 -0.4516
 3667SOL    HW111625   3.073   1.802   0.490  0.4980 -0.6876 -0.1255
 3667SOL    HW211626   3.141   1.909   0.593 -0.9375  1.2110 -1.0715
 3668SOL     OW11627   2.036   2.343   0.500  0.5703 -0.6604 -0.1532
 3668SOL    HW111628   1.983   2.328   0.584  1.3402 -0.4818  0.3711
 3668SOL    HW211629   2.092   2.263   0.481 -0.5108 -1.2084 -1.1944
 3669SOL     OW11630   0.138   3.520   1.039 -0.4592  0.1632 -0.4067
 3669SOL    HW111631   0.165   3.611   1.010 -2.3035  0.7679 -0.3588
 3669SOL    HW211632   0.209   3.481   1.098  0.6985  1.2368 -1.0527
 3670SOL     OW11633   3.470   0.510   2.694  0.2639  0.2205  0.3009
 3670SOL    HW111634   3.562   0.537   2.663 -0.2684 -0.7009 -2.3643
 3670SOL    HW211635   3.463   0.411   2.695 -0.8086  0.2871  0.1541
 3671SOL     OW11636   0.092   0.194   3.817  0.7016  0.5633  0.0281
 3671SOL    HW111637   0.106   0.110   3.871 -0.1612  0.2190 -0.2715
 3671SOL    HW211638   0.174   0.212   3.763  1.6052  0.9277  1.4499
 3672SOL     OW11639   2.332   3.618   4.349  0.6872  0.1173  0.8297
 3672SOL    HW111640   2.313   3.682   4.275  3.5129 -0.6362 -0.6938
 3672SOL    HW211641   2.265   3.544   4.348  1.3074 -0.4841 -1.7536
 3673SOL     OW11642   0.576   4.170   4.928 -0.3384  0.1038 -0.7310
 3673SOL    HW111643   0.548   4.115   4.849  0.0238 -1.3987  0.1423
 3673SOL    HW211644   0.583   4.111   5.009  1.8528  1.0599 -0.1471
 3674SOL     OW11645   1.447   0.557   0.635  0.1859  0.8183 -0.8366
 3674SOL    HW111646   1.514   0.631   0.640 -1.0046  1.9863 -1.4981
 3674SOL    HW211647   1.488   0.479   0.587  2.2563  0.0576  1.9277
 3675SOL     OW11648   1.492   0.509   0.970  0.2068  0.4032  0.5065
 3675SOL    HW111649   1.472   0.437   1.037  2.8181  1.5060  2.6825
 3675SOL    HW211650   1.470   0.476   0.878  1.0968 -3.1215  1.3921
 3676SOL     OW11651   1.398   4.329   3.065 -0.2903 -0.1823 -0.7223
 3676SOL    HW111652   1.426   4.421   3.090 -0.7715  0.2712 -1.8294
 3676SOL    HW211653   1.318   4.303   3.119 -0.7025  0.3965 -1.0552
 3677SOL     OW11654   1.414   4.559   3.906  0.1228 -0.0597 -0.3874
 3677SOL    HW111655   1.325   4.570   3.950 -1.1312 -0.7598 -2.6386
 3677SOL    HW211656   1.405   4.572   3.808  2.3053 -1.3051 -0.8172
 3678SOL     OW11657   0.321   2.805   3.030  0.5701  0.0009 -0.5494
 3678SOL    HW111658   0.236   2.857   3.031  1.0166  0.8768 -2.8893
 3678SOL    HW211659   0.301   2.708   3.046 -0.6277  0.4044  0.6095
 3679SOL     OW11660   0.605   2.370   2.311  0.0190  0.5009 -0.2118
 3679SOL    HW111661   0.555   2.456   2.311  0.3082  0.6795 -1.1509
 3679SOL    HW211662   0.673   2.371   2.384 -0.6210  0.6737  0.4007
 3680SOL     OW11663   1.054   0.739   0.386 -0.3010  0.0317 -0.0658
 3680SOL    HW111664   1.056   0.644   0.354  0.1704 -0.0034  0.0692
 3680SOL    HW211665   1.102   0.746   0.473  1.4148  0.7479 -1.0179
 3681SOL     OW11666   1.131   2.675   4.579 -0.6167  0.2157 -0.3722
 3681SOL    HW111667   1.109   2.747   4.514  1.9024  0.4446 -1.0777
 3681SOL    HW211668   1.074   2.685   4.660 -0.0310  3.3535 -0.2073
 3682SOL     OW11669   2.591   4.723   2.693 -0.6213 -0.0739  0.0736
 3682SOL    HW111670   2.523   4.754   2.628 -1.2621 -2.2280 -0.3400
 3682SOL    HW211671   2.575   4.627   2.717  1.7039 -0.3852  0.6857
 3683SOL     OW11672   3.950   3.888   4.241 -0.3494  0.3081  0.3154
 3683SOL    HW111673   4.030   3.829   4.245  0.2826  1.1434  0.3937
 3683SOL    HW211674   3.963   3.965   4.304 -1.3391  0.3066  0.5391
 3684SOL     OW11675   4.134   3.894   3.850 -0.5446 -0.0482  0.7082
 3684SOL    HW111676   4.230   3.923   3.845 -0.4226 -0.3696  1.1206
 3684SOL    HW211677   4.087   3.947   3.922 -0.1999 -1.1833  1.8002
 3685SOL     OW11678   3.265   4.051   1.623  0.4172  0.4615 -0.6360
 3685SOL    HW111679   3.321   3.987   1.675  1.9730 -0.5092 -3.2826
 3685SOL    HW211680   3.292   4.144   1.646  1.6090  0.0500 -0.2538
 3686SOL     OW11681   0.062   2.844   3.862 -0.1168 -0.2458 -0.0332
 3686SOL    HW111682   0.002   2.765   3.872  0.9120 -1.2679 -1.5458
 3686SOL    HW211683   0.108   2.840   3.773  1.0162  1.3208  0.4433
 3687SOL     OW11684   3.377   4.107   0.619 -0.4106 -0.6178 -0.1816
 3687SOL    HW111685   3.438   4.183   0.640 -2.3787  0.9919  0.0254
 3687SOL    HW211686   3.382   4.086   0.521  2.4031 -2.3576  0.2431
 3688SOL     OW11687   4.330   4.092   2.838  0.6387  0.0405 -0.4850
 3688SOL    HW111688   4.376   4.070   2.751 -1.0608  0.6167 -1.5924
 3688SOL    HW211689   4.245   4.040   2.843 -0.2117  1.4238 -0.0659
 3689SOL     OW11690   2.424   4.105   3.734 -0.8015  0.1088 -0.5827
 3689SOL    HW111691   2.456   4.105   3.639 -1.4797 -0.3954 -0.8189
 3689SOL    HW211692   2.472   4.033   3.785  0.3684  1.0873 -0.2452
 3690SOL     OW11693   3.048   4.502   4.898 -0.6108  0.2479  0.1066
 3690SOL    HW111694   3.098   4.504   4.812 -0.8756  1.4845 -0.0283
 3690SOL    HW211695   3.048   4.408   4.934  2.1321  0.2194  0.3098
 3691SOL     OW11696   1.893   1.383   2.986 -0.3969  0.9630 -0.4422
 3691SOL    HW111697   1.837   1.368   3.068  1.2497  0.3965  0.6267
 3691SOL    HW211698   1.953   1.461   3.001  0.7936  0.0980 -0.5989
 3692SOL     OW11699   4.209   3.495   1.715 -0.4542  0.2471 -0.2613
 3692SOL    HW111700   4.254   3.415   1.675 -0.6962  0.1081 -0.2634
 3692SOL    HW211701   4.183   3.559   1.644  0.0216  0.4736 -0.2291
 3693SOL     OW11702   3.040   0.970   3.652 -0.4057  0.3463 -0.5490
 3693SOL    HW111703   2.992   1.057   3.662  0.0115  0.4430  0.8523
 3693SOL    HW211704   3.066   0.956   3.556  0.9678  2.5456 -0.5593
 3694SOL     OW11705   2.467   0.261   0.495 -0.0761 -0.1116 -0.3050
 3694SOL    HW111706   2.564   0.243   0.515 -0.2012 -1.4164 -0.7978
 3694SOL    HW211707   2.424   0.304   0.574  0.3946 -1.5315  0.7560
 3695SOL     OW11708   0.332   2.134   0.275 -0.0293 -0.2315 -0.6018
 3695SOL    HW111709   0.270   2.069   0.317 -1.1120  1.4570  0.5385
 3695SOL    HW211710   0.392   2.174   0.345  3.3212 -2.6764 -1.8142
 3696SOL     OW11711   3.173   0.602   0.434  0.8764  0.3501  0.1944
 3696SOL    HW111712   3.242   0.634   0.499  0.0897 -2.6388  2.7594
 3696SOL    HW211713   3.193   0.507   0.408  0.5181  1.0848 -3.1872
 3697SOL     OW11714   0.691   3.034   3.794  0.0335 -0.5438 -0.7732
 3697SOL    HW111715   0.711   2.937   3.800 -2.4977 -1.1054  0.1288
 3697SOL    HW211716   0.591   3.047   3.796  0.3262  2.1118 -0.0957
 3698SOL     OW11717   2.785   1.989   0.468 -0.1984 -0.2424  0.4430
 3698SOL    HW111718   2.778   2.084   0.437 -0.7933 -0.3511  0.2170
 3698SOL    HW211719   2.786   1.987   0.568  2.4928  0.1597  0.4858
 3699SOL     OW11720   0.363   1.503   4.410  0.0536 -1.1615  0.4946
 3699SOL    HW111721   0.340   1.593   4.373  1.3944 -0.7502  0.5992
 3699SOL    HW211722   0.281   1.459   4.446 -0.6796 -0.1473  0.0966
 3700SOL     OW11723   4.036   0.396   2.331 -0.7806  0.1199  0.6483
 3700SOL    HW111724   4.006   0.364   2.241  0.2022 -1.4441  0.8323
 3700SOL    HW211725   4.120   0.449   2.321 -0.8974  0.3006  0.6136
 3701SOL     OW11726   3.517   4.908   2.403  0.2251 -0.0067 -0.2163
 3701SOL    HW111727   3.524   4.816   2.365 -1.2411 -0.1118 -0.2921
 3701SOL    HW211728   3.437   4.954   2.365  3.0695  2.9122 -3.4687
 3702SOL     OW11729   2.351   4.683   4.942 -0.3157  0.4767  0.0177
 3702SOL    HW111730   2.407   4.649   4.867 -2.7245 -5.1524  0.3218
 3702SOL    HW211731   2.255   4.685   4.913 -1.4564 -2.7964  2.9119
 3703SOL     OW11732   2.980   0.623   0.795  0.5657 -0.4404  0.2544
 3703SOL    HW111733   2.891   0.586   0.820 -0.4231 -1.5216 -3.9999
 3703SOL    HW211734   3.037   0.549   0.759 -0.1444  1.1565 -5.0890
 3704SOL     OW11735   3.968   3.388   0.808  0.3215  0.6930  0.1704
 3704SOL    HW111736   4.058   3.376   0.851  1.3739  2.4173 -1.4463
 3704SOL    HW211737   3.915   3.454   0.861  0.6997  1.0237  0.1437
 3705SOL     OW11738   3.887   0.998   2.359  0.1748 -0.9708  0.2055
 3705SOL    HW111739   3.842   0.921   2.314 -0.4617 -0.3327 -0.2903
 3705SOL    HW211740   3.817   1.054   2.406  0.9369 -2.4912  3.4485
 3706SOL     OW11741   3.910   3.796   2.908 -0.4474  0.4428  0.0625
 3706SOL    HW111742   3.845   3.866   2.881  1.5882  1.9240 -1.2784
 3706SOL    HW211743   3.862   3.709   2.922 -2.7427  1.5993 -0.2341
 3707SOL     OW11744   2.073   2.598   2.075 -0.1311 -0.2621 -0.2689
 3707SOL    HW111745   2.094   2.505   2.104  1.5606  0.7396  2.0814
 3707SOL    HW211746   2.145   2.660   2.107 -0.4515  1.7037 -3.0014
 3708SOL     OW11747   0.155   2.932   0.616  0.1441 -0.2497  0.1249
 3708SOL    HW111748   0.097   3.006   0.651  1.2827  0.3951  0.6933
 3708SOL    HW211749   0.142   2.850   0.671  0.8996  0.3517  1.2241
 3709SOL     OW11750   0.915   4.324   2.137  0.3675 -0.0060 -0.0437
 3709SOL    HW111751   0.929   4.375   2.222  1.2206  0.4417 -0.4332
 3709SOL    HW211752   0.882   4.233   2.158 -1.0344  0.6457  0.6747
 3710SOL     OW11753   1.057   4.917   3.775 -0.6014  0.0991 -1.0055
 3710SOL    HW111754   1.015   4.997   3.818 -2.0512 -1.6221  0.9864
 3710SOL    HW211755   1.109   4.866   3.844 -0.2834 -1.0443 -2.0558
 3711SOL     OW11756   4.548   3.555   4.785 -0.0802  0.3661  0.2597
 3711SOL    HW111757   4.552   3.505   4.872 -1.6366  0.1073  0.2111
 3711SOL    HW211758   4.476   3.624   4.789 -2.0641 -1.4490 -1.6877
 3712SOL     OW11759   1.572   3.308   3.492  0.3572  0.4949 -0.2687
 3712SOL    HW111760   1.571   3.251   3.410  0.6664  1.6548 -1.0995
 3712SOL    HW211761   1.483   3.303   3.538  0.6295 -1.2860  0.1476
 3713SOL     OW11762   2.783   3.155   0.845  0.1624 -0.7316 -0.2453
 3713SOL    HW111763   2.823   3.068   0.874 -1.5898 -0.8976  1.9801
 3713SOL    HW211764   2.749   3.203   0.926 -0.4372  1.2543 -1.6245
 3714SOL     OW11765   1.357   4.000   0.959  0.3920 -0.1853 -0.4402
 3714SOL    HW111766   1.456   4.003   0.951  0.8022  0.6553  3.3517
 3714SOL    HW211767   1.319   4.088   0.930  1.3288  1.2648  2.3386
 3715SOL     OW11768   2.948   0.873   0.197  0.4113 -0.5204  0.6755
 3715SOL    HW111769   2.994   0.962   0.196  0.2178 -0.2840  3.5727
 3715SOL    HW211770   2.849   0.886   0.203  0.3995 -0.8971  1.4541
 3716SOL     OW11771   1.944   0.146   3.110 -0.3947  0.1208  0.7139
 3716SOL    HW111772   2.006   0.070   3.093 -1.7689 -0.7729 -0.5696
 3716SOL    HW211773   1.855   0.112   3.139 -0.7978  1.2817  0.9141
 3717SOL     OW11774   4.533   4.102   1.631  0.3395 -0.0770 -0.0982
 3717SOL    HW111775   4.469   4.149   1.571  0.3515  1.5940  1.1370
 3717SOL    HW211776   4.603   4.166   1.661  1.1427 -1.2421  0.6037
 3718SOL     OW11777   4.817   4.135   1.262  0.4146 -0.3279  0.3655
 3718SOL    HW111778   4.789   4.201   1.192  3.9560  0.7867 -0.2167
 3718SOL    HW211779   4.750   4.061   1.268 -2.5332  2.0949 -0.5987
 3719SOL     OW11780   2.081   3.118   1.542  0.4594 -0.6872 -0.3078
 3719SOL    HW111781   1.984   3.094   1.541  0.7368 -1.8286 -1.2655
 3719SOL    HW211782   2.090   3.218   1.533 -0.6705 -0.2165  2.7351
 3720SOL     OW11783   2.826   3.504   4.234 -0.0980  0.0248  0.1249
 3720SOL    HW111784   2.851   3.582   4.177 -1.1955 -0.6908 -1.4007
 3720SOL    HW211785   2.780   3.435   4.178 -1.3281 -0.6684  1.8990
 3721SOL     OW11786   1.454   3.681   2.008 -0.8824  0.2602 -0.2030
 3721SOL    HW111787   1.512   3.719   2.080 -1.1867 -1.8888  1.2522
 3721SOL    HW211788   1.374   3.739   1.996 -1.0266  0.4722  1.5052
   5.00000   5.00000   5.00000
